TITLE     = "| |"
VARIABLES = "X"
"Y"
"Z"
ZONE T="ZONE 001"
 STRANDID=0, SOLUTIONTIME=0
 Nodes=5704, Elements=5702, ZONETYPE=FEQuadrilateral
 DATAPACKING=POINT
 DT=(SINGLE SINGLE SINGLE )
 1.293316007E+00 1.188817978E+00 2.675045013E+00
 1.300600886E+00 1.183107853E+00 2.677814960E+00
 1.630876899E+00 1.362472773E+00 3.056681156E+00
 1.297775626E+00 1.192626238E+00 2.669798374E+00
 1.301895261E+00 1.196682453E+00 2.664486408E+00
 1.305839419E+00 1.200913668E+00 2.659157276E+00
 1.309494138E+00 1.205350637E+00 2.653809547E+00
 1.312986732E+00 1.209923506E+00 2.648448944E+00
 1.316409469E+00 1.214573145E+00 2.643116951E+00
 1.319847226E+00 1.219247818E+00 2.637825489E+00
 1.323215127E+00 1.224008083E+00 2.632551670E+00
 1.326528430E+00 1.228814363E+00 2.627280712E+00
 1.329952836E+00 1.233509064E+00 2.622005939E+00
 1.333399177E+00 1.238194227E+00 2.616714001E+00
 1.337012172E+00 1.242731094E+00 2.611406326E+00
 1.340772033E+00 1.247172117E+00 2.606127739E+00
 1.344729066E+00 1.251438618E+00 2.600846767E+00
 1.348687530E+00 1.255500793E+00 2.595400333E+00
 1.352825522E+00 1.259219170E+00 2.589861870E+00
 1.357608676E+00 1.262783527E+00 2.584750175E+00
 1.363196492E+00 1.266366005E+00 2.580549240E+00
 1.369336486E+00 1.269808531E+00 2.577058315E+00
 1.375810266E+00 1.272943497E+00 2.573908329E+00
 1.382509112E+00 1.275723934E+00 2.570873260E+00
 1.389396071E+00 1.278180361E+00 2.567996502E+00
 1.396483064E+00 1.280330658E+00 2.565369606E+00
 1.403751731E+00 1.282208920E+00 2.563058376E+00
 1.411172986E+00 1.283820629E+00 2.561040401E+00
 1.418705583E+00 1.285210371E+00 2.559278488E+00
 1.426331162E+00 1.286365032E+00 2.557762146E+00
 1.434028029E+00 1.287302971E+00 2.556488514E+00
 1.441780925E+00 1.288074255E+00 2.555472851E+00
 1.449577689E+00 1.288707018E+00 2.554701328E+00
 1.457406163E+00 1.289221287E+00 2.554182529E+00
 1.465242743E+00 1.289673090E+00 2.553889751E+00
 1.473095536E+00 1.290093422E+00 2.553822517E+00
 1.480944753E+00 1.290488720E+00 2.553957462E+00
 1.488787532E+00 1.290925980E+00 2.554249763E+00
 1.496616244E+00 1.291412830E+00 2.554678440E+00
 1.504438281E+00 1.291969061E+00 2.555232525E+00
 1.512236714E+00 1.292564154E+00 2.555922985E+00
 1.520032525E+00 1.293179512E+00 2.556752205E+00
 1.527806878E+00 1.293813229E+00 2.557708740E+00
 1.535560012E+00 1.294446230E+00 2.558805466E+00
 1.543295264E+00 1.295056820E+00 2.560032368E+00
 1.551017165E+00 1.295670033E+00 2.561429024E+00
 1.558675408E+00 1.296253204E+00 2.563033581E+00
 1.566299081E+00 1.296773434E+00 2.564901352E+00
 1.573856473E+00 1.297256947E+00 2.567017555E+00
 1.581335902E+00 1.297750473E+00 2.569348335E+00
 1.588746667E+00 1.298245907E+00 2.571914196E+00
 1.596088767E+00 1.298771620E+00 2.574683666E+00
 1.603361964E+00 1.299373627E+00 2.577602863E+00
 1.610566258E+00 1.300069809E+00 2.580650330E+00
 1.617720723E+00 1.300882339E+00 2.583816528E+00
 1.624805570E+00 1.301817656E+00 2.587089062E+00
 1.631820321E+00 1.302894354E+00 2.590445995E+00
 1.638762355E+00 1.304106236E+00 2.593938828E+00
 1.645578980E+00 1.305441618E+00 2.597602844E+00
 1.652268767E+00 1.306892633E+00 2.601469994E+00
 1.658790231E+00 1.308438540E+00 2.605577946E+00
 1.665112138E+00 1.310068607E+00 2.609954834E+00
 1.671213984E+00 1.311782360E+00 2.614609718E+00
 1.677064538E+00 1.313604593E+00 2.619517326E+00
 1.682694793E+00 1.315565825E+00 2.624638081E+00
 1.688072324E+00 1.317702055E+00 2.629957199E+00
 1.693208575E+00 1.320040464E+00 2.635422707E+00
 1.698104024E+00 1.322590351E+00 2.641024590E+00
 1.702750325E+00 1.325367212E+00 2.646710396E+00
 1.707148910E+00 1.328324080E+00 2.652523518E+00
 1.711253524E+00 1.331416607E+00 2.658463478E+00
 1.715054154E+00 1.334625721E+00 2.664550781E+00
 1.718555808E+00 1.337901115E+00 2.670780182E+00
 1.721741319E+00 1.341210604E+00 2.677150726E+00
 1.724611402E+00 1.344544888E+00 2.683665276E+00
 1.727188706E+00 1.347912550E+00 2.690283298E+00
 1.729535699E+00 1.351325512E+00 2.696959496E+00
 1.731662393E+00 1.354794025E+00 2.703683853E+00
 1.733589768E+00 1.358337402E+00 2.710426331E+00
 1.735337615E+00 1.361957073E+00 2.717178345E+00
 1.736948371E+00 1.365655184E+00 2.723924160E+00
 1.738382220E+00 1.369409323E+00 2.730681419E+00
 1.739661574E+00 1.373191357E+00 2.737443447E+00
 1.740744948E+00 1.376990318E+00 2.744248867E+00
 1.741638064E+00 1.380745411E+00 2.751091003E+00
 1.742310166E+00 1.384445906E+00 2.757989407E+00
 1.742783189E+00 1.388073683E+00 2.764946461E+00
 1.743039250E+00 1.391587973E+00 2.771974087E+00
 1.743081450E+00 1.394967794E+00 2.779063702E+00
 1.742946267E+00 1.398256302E+00 2.786204815E+00
 1.742674947E+00 1.401474714E+00 2.793370247E+00
 1.742267251E+00 1.404622555E+00 2.800559044E+00
 1.741743684E+00 1.407701731E+00 2.807763100E+00
 1.741080880E+00 1.410740614E+00 2.814988613E+00
 1.740292192E+00 1.413737774E+00 2.822206497E+00
 1.739363790E+00 1.416712999E+00 2.829424381E+00
 1.738296866E+00 1.419675589E+00 2.836631775E+00
 1.737092614E+00 1.422624350E+00 2.843808174E+00
 1.735721707E+00 1.425518513E+00 2.850985050E+00
 1.734178901E+00 1.428308010E+00 2.858164310E+00
 1.732455373E+00 1.430962801E+00 2.865368366E+00
 1.730543971E+00 1.433470726E+00 2.872567177E+00
 1.728479028E+00 1.435756683E+00 2.879798889E+00
 1.726263881E+00 1.437790155E+00 2.887055874E+00
 1.723888755E+00 1.439579725E+00 2.894326687E+00
 1.721397996E+00 1.441050529E+00 2.901640415E+00
 1.718805432E+00 1.442191839E+00 2.908968925E+00
 1.716103196E+00 1.442982197E+00 2.916302681E+00
 1.713266730E+00 1.443377495E+00 2.923622608E+00
 1.710312963E+00 1.443326950E+00 2.930903912E+00
 1.707299829E+00 1.442855120E+00 2.938138962E+00
 1.704306006E+00 1.441970587E+00 2.945354939E+00
 1.701421618E+00 1.440671206E+00 2.952548504E+00
 1.698418498E+00 1.438834906E+00 2.959568501E+00
 1.694954276E+00 1.436342478E+00 2.966164112E+00
 1.690840125E+00 1.433093309E+00 2.972012997E+00
 1.686525464E+00 1.429274082E+00 2.977352619E+00
 1.682488322E+00 1.425167084E+00 2.982696056E+00
 1.678663611E+00 1.420964956E+00 2.988143921E+00
 1.674974561E+00 1.416566133E+00 2.993495941E+00
 1.671317697E+00 1.412011147E+00 2.998751163E+00
 1.667771935E+00 1.407289028E+00 3.003936768E+00
 1.664239764E+00 1.402536869E+00 3.009105206E+00
 1.660815597E+00 1.397648096E+00 3.014212132E+00
 1.657346129E+00 1.392797709E+00 3.019342899E+00
 1.653766990E+00 1.388103485E+00 3.024533749E+00
 1.650185227E+00 1.383365154E+00 3.029676914E+00
 1.646521926E+00 1.378732681E+00 3.034847260E+00
 1.642758489E+00 1.374239206E+00 3.040098667E+00
 1.638894677E+00 1.370051384E+00 3.045512199E+00
 1.634944558E+00 1.366083622E+00 3.051003456E+00
 1.632293105E+00 1.353746176E+00 3.052784920E+00
 1.304812074E+00 1.186367512E+00 2.672254086E+00
 1.308777690E+00 1.190045834E+00 2.666774750E+00
 1.312507987E+00 1.193985462E+00 2.661297321E+00
 1.316038013E+00 1.198111534E+00 2.655839920E+00
 1.319412112E+00 1.202396393E+00 2.650399208E+00
 1.322681308E+00 1.206805706E+00 2.644990921E+00
 1.325906634E+00 1.211316824E+00 2.639642715E+00
 1.329104066E+00 1.215878487E+00 2.634328365E+00
 1.332301974E+00 1.220449448E+00 2.629003525E+00
 1.335491538E+00 1.225008488E+00 2.623668671E+00
 1.338734269E+00 1.229523420E+00 2.618351936E+00
 1.342062354E+00 1.233994484E+00 2.613024712E+00
 1.345541120E+00 1.238348484E+00 2.607708454E+00
 1.349192977E+00 1.242566347E+00 2.602396011E+00
 1.352994084E+00 1.246538877E+00 2.597002506E+00
 1.356837392E+00 1.250134706E+00 2.591377735E+00
 1.361112952E+00 1.253626823E+00 2.586017609E+00
 1.366295695E+00 1.257143021E+00 2.581536293E+00
 1.372115016E+00 1.260530949E+00 2.577820778E+00
 1.378363729E+00 1.263670206E+00 2.574581623E+00
 1.384885430E+00 1.266479254E+00 2.571589947E+00
 1.391641736E+00 1.268943787E+00 2.568832397E+00
 1.398595214E+00 1.271113634E+00 2.566343784E+00
 1.405734658E+00 1.272989273E+00 2.564142704E+00
 1.413033128E+00 1.274612427E+00 2.562274933E+00
 1.420448661E+00 1.275998354E+00 2.560724735E+00
 1.427961469E+00 1.277155161E+00 2.559490681E+00
 1.435549378E+00 1.278138638E+00 2.558536053E+00
 1.443168521E+00 1.278975725E+00 2.557866573E+00
 1.450828671E+00 1.279686213E+00 2.557470798E+00
 1.458505273E+00 1.280309200E+00 2.557353973E+00
 1.466186166E+00 1.280901194E+00 2.557481766E+00
 1.473856091E+00 1.281502008E+00 2.557868958E+00
 1.481501460E+00 1.282170296E+00 2.558500767E+00
 1.489127994E+00 1.282881260E+00 2.559319019E+00
 1.496744037E+00 1.283638716E+00 2.560224533E+00
 1.504343152E+00 1.284428120E+00 2.561175823E+00
 1.511930585E+00 1.285282850E+00 2.562202454E+00
 1.519506812E+00 1.286202908E+00 2.563303947E+00
 1.527053475E+00 1.287147045E+00 2.564491749E+00
 1.534592986E+00 1.288088560E+00 2.565779686E+00
 1.542117953E+00 1.288986206E+00 2.567169666E+00
 1.549617171E+00 1.289832115E+00 2.568702698E+00
 1.557098746E+00 1.290609598E+00 2.570410252E+00
 1.564520240E+00 1.291299582E+00 2.572349548E+00
 1.571871161E+00 1.291872740E+00 2.574553013E+00
 1.579127192E+00 1.292442799E+00 2.577080250E+00
 1.586304069E+00 1.293190002E+00 2.579770565E+00
 1.593480229E+00 1.293919325E+00 2.582491398E+00
 1.600630164E+00 1.294532299E+00 2.585299015E+00
 1.607697606E+00 1.295251131E+00 2.588263035E+00
 1.614708304E+00 1.296045542E+00 2.591358185E+00
 1.621650100E+00 1.296943903E+00 2.594571114E+00
 1.628530145E+00 1.297976732E+00 2.597899914E+00
 1.635317445E+00 1.299170971E+00 2.601330757E+00
 1.642012477E+00 1.300478935E+00 2.604906082E+00
 1.648583293E+00 1.301891565E+00 2.608665466E+00
 1.654996514E+00 1.303389788E+00 2.612667084E+00
 1.661185861E+00 1.305001736E+00 2.616953850E+00
 1.667120337E+00 1.306726217E+00 2.621543407E+00
 1.672831655E+00 1.308582306E+00 2.626386642E+00
 1.678294301E+00 1.310573578E+00 2.631431103E+00
 1.683525920E+00 1.312730312E+00 2.636655807E+00
 1.688540101E+00 1.315060854E+00 2.642021656E+00
 1.693337321E+00 1.317572117E+00 2.647496700E+00
 1.697919726E+00 1.320264578E+00 2.653072357E+00
 1.702278733E+00 1.323088646E+00 2.658771038E+00
 1.706354499E+00 1.326039076E+00 2.664597988E+00
 1.710137248E+00 1.329097271E+00 2.670573711E+00
 1.713609338E+00 1.332249641E+00 2.676678181E+00
 1.716772914E+00 1.335467100E+00 2.682923317E+00
 1.719608903E+00 1.338737488E+00 2.689298153E+00
 1.722141147E+00 1.342059851E+00 2.695775032E+00
 1.724392772E+00 1.345404863E+00 2.702327251E+00
 1.726433396E+00 1.348816156E+00 2.708927631E+00
 1.728295922E+00 1.352284670E+00 2.715548992E+00
 1.730011582E+00 1.355821133E+00 2.722174168E+00
 1.731600881E+00 1.359407902E+00 2.728805065E+00
 1.733066201E+00 1.363024712E+00 2.735443592E+00
 1.734404683E+00 1.366701841E+00 2.742086887E+00
 1.735568643E+00 1.370423794E+00 2.748723507E+00
 1.736537576E+00 1.374142885E+00 2.755403519E+00
 1.737320781E+00 1.377722740E+00 2.762178421E+00
 1.737939715E+00 1.381145000E+00 2.769052029E+00
 1.738383651E+00 1.384428024E+00 2.776010990E+00
 1.738661885E+00 1.387610197E+00 2.783013344E+00
 1.738804698E+00 1.390675068E+00 2.790082932E+00
 1.738831639E+00 1.393652439E+00 2.797189236E+00
 1.738771796E+00 1.396564245E+00 2.804323196E+00
 1.738614440E+00 1.399428368E+00 2.811472416E+00
 1.738377452E+00 1.402276278E+00 2.818625927E+00
 1.738080144E+00 1.405128717E+00 2.825774670E+00
 1.737691998E+00 1.407993078E+00 2.832914829E+00
 1.737192035E+00 1.410876989E+00 2.840044022E+00
 1.736551881E+00 1.413758278E+00 2.847161770E+00
 1.735745549E+00 1.416585207E+00 2.854279518E+00
 1.734732985E+00 1.419363976E+00 2.861393452E+00
 1.733487487E+00 1.422051907E+00 2.868494511E+00
 1.732012153E+00 1.424581528E+00 2.875627518E+00
 1.730342269E+00 1.426914930E+00 2.882778645E+00
 1.728498101E+00 1.429033756E+00 2.889949322E+00
 1.726466298E+00 1.430876732E+00 2.897144794E+00
 1.724268556E+00 1.432425261E+00 2.904356480E+00
 1.721899390E+00 1.433628321E+00 2.911588669E+00
 1.719373584E+00 1.434446335E+00 2.918824673E+00
 1.716687083E+00 1.434835672E+00 2.926036835E+00
 1.713864446E+00 1.434767246E+00 2.933199406E+00
 1.710973859E+00 1.434257269E+00 2.940327168E+00
 1.708121419E+00 1.433364630E+00 2.947414398E+00
 1.705250382E+00 1.431962490E+00 2.954435349E+00
 1.702078462E+00 1.429916382E+00 2.961143970E+00
 1.698391795E+00 1.427139759E+00 2.967298031E+00
 1.694109797E+00 1.423625469E+00 2.972639084E+00
 1.689726472E+00 1.419734478E+00 2.977646351E+00
 1.685722709E+00 1.415645599E+00 2.982799053E+00
 1.681908011E+00 1.411361456E+00 2.987951756E+00
 1.678190351E+00 1.406884909E+00 2.992985249E+00
 1.674540877E+00 1.402268171E+00 2.997953892E+00
 1.670924544E+00 1.397559166E+00 3.002861023E+00
 1.667343974E+00 1.392801762E+00 3.007754803E+00
 1.663764834E+00 1.388033628E+00 3.012638569E+00
 1.660182834E+00 1.383286476E+00 3.017541885E+00
 1.656566978E+00 1.378576756E+00 3.022439003E+00
 1.652835011E+00 1.373937130E+00 3.027331352E+00
 1.648997426E+00 1.369431973E+00 3.032256126E+00
 1.645057797E+00 1.365095377E+00 3.037261009E+00
 1.640999198E+00 1.360987902E+00 3.042360783E+00
 1.636795402E+00 1.357177258E+00 3.047558308E+00
 1.303970218E+00 1.188883305E+00 2.681764603E+00
 1.307363868E+00 1.194712400E+00 2.685602188E+00
 1.310768247E+00 1.200597286E+00 2.689366817E+00
 1.314175010E+00 1.206507683E+00 2.693069458E+00
 1.317581058E+00 1.212446451E+00 2.696749210E+00
 1.320944667E+00 1.218383551E+00 2.700456142E+00
 1.324276328E+00 1.224311113E+00 2.704201221E+00
 1.327574372E+00 1.230247974E+00 2.707973480E+00
 1.330841899E+00 1.236200809E+00 2.711731434E+00
 1.334098220E+00 1.242163897E+00 2.715497971E+00
 1.337344289E+00 1.248144627E+00 2.719242573E+00
 1.340570331E+00 1.254150867E+00 2.722953320E+00
 1.343818784E+00 1.260175467E+00 2.726613998E+00
 1.347079396E+00 1.266227245E+00 2.730223656E+00
 1.350339293E+00 1.272325277E+00 2.733779907E+00
 1.353560090E+00 1.278446674E+00 2.737290859E+00
 1.356748700E+00 1.284622908E+00 2.740765095E+00
 1.359887242E+00 1.290850878E+00 2.744181633E+00
 1.362953782E+00 1.297138214E+00 2.747537136E+00
 1.365967631E+00 1.303498030E+00 2.750843048E+00
 1.368890405E+00 1.309906244E+00 2.754097939E+00
 1.371730208E+00 1.316393614E+00 2.757289886E+00
 1.374446034E+00 1.322966337E+00 2.760425091E+00
 1.377060294E+00 1.329596043E+00 2.763497829E+00
 1.379592776E+00 1.336294889E+00 2.766508579E+00
 1.382066607E+00 1.343033552E+00 2.769451141E+00
 1.384539962E+00 1.349800110E+00 2.772361755E+00
 1.387087464E+00 1.356541634E+00 2.775259972E+00
 1.389738202E+00 1.363223791E+00 2.778191090E+00
 1.392532706E+00 1.369823217E+00 2.781190395E+00
 1.395491481E+00 1.376293182E+00 2.784292698E+00
 1.398624539E+00 1.382617712E+00 2.787530899E+00
 1.401942372E+00 1.388759375E+00 2.790937901E+00
 1.405502439E+00 1.394670486E+00 2.794482231E+00
 1.409248710E+00 1.400369883E+00 2.798207283E+00
 1.413175225E+00 1.405780077E+00 2.802158833E+00
 1.417306781E+00 1.410796881E+00 2.806396961E+00
 1.421670079E+00 1.415315151E+00 2.810961723E+00
 1.426243663E+00 1.419214010E+00 2.815878391E+00
 1.431006789E+00 1.422428131E+00 2.821100235E+00
 1.435895562E+00 1.424927711E+00 2.826583862E+00
 1.440863967E+00 1.426696777E+00 2.832286835E+00
 1.445848107E+00 1.427723169E+00 2.838133335E+00
 1.450819850E+00 1.428012609E+00 2.844101429E+00
 1.455738902E+00 1.427645206E+00 2.850090981E+00
 1.460585237E+00 1.426739216E+00 2.856091976E+00
 1.465397477E+00 1.425464630E+00 2.862055779E+00
 1.470165610E+00 1.423830032E+00 2.867960453E+00
 1.474953294E+00 1.421865702E+00 2.873749256E+00
 1.479714751E+00 1.419600010E+00 2.879446507E+00
 1.484454513E+00 1.417085409E+00 2.885068417E+00
 1.489179492E+00 1.414370537E+00 2.890593052E+00
 1.493916392E+00 1.411489010E+00 2.896029472E+00
 1.498676658E+00 1.408514023E+00 2.901404381E+00
 1.503465772E+00 1.405496120E+00 2.906713486E+00
 1.508272052E+00 1.402510643E+00 2.912032604E+00
 1.513108134E+00 1.399619579E+00 2.917367458E+00
 1.517970681E+00 1.396835566E+00 2.922757626E+00
 1.522838712E+00 1.394176245E+00 2.928188801E+00
 1.527711272E+00 1.391642570E+00 2.933683395E+00
 1.532577157E+00 1.389234066E+00 2.939238071E+00
 1.537440419E+00 1.386938334E+00 2.944825172E+00
 1.542333722E+00 1.384728670E+00 2.950448513E+00
 1.547224879E+00 1.382622004E+00 2.956105232E+00
 1.552116752E+00 1.380607128E+00 2.961775303E+00
 1.557031751E+00 1.378655910E+00 2.967463493E+00
 1.561970353E+00 1.376767635E+00 2.973158836E+00
 1.566926122E+00 1.374930382E+00 2.978842258E+00
 1.571929097E+00 1.373135805E+00 2.984506130E+00
 1.576979995E+00 1.371384144E+00 2.990150928E+00
 1.582049489E+00 1.369681597E+00 2.995763779E+00
 1.587134957E+00 1.368012428E+00 3.001396179E+00
 1.592208028E+00 1.366352797E+00 3.007036209E+00
 1.597247720E+00 1.364703178E+00 3.012713909E+00
 1.602244496E+00 1.363052130E+00 3.018417358E+00
 1.607197881E+00 1.361400843E+00 3.024167538E+00
 1.612148881E+00 1.359770298E+00 3.029926777E+00
 1.617106080E+00 1.358180285E+00 3.035683155E+00
 1.622111678E+00 1.356633186E+00 3.041420937E+00
 1.627163768E+00 1.355148077E+00 3.047127724E+00
 1.296820521E+00 1.194766283E+00 2.678873539E+00
 1.300304770E+00 1.200722218E+00 2.682689667E+00
 1.303777814E+00 1.206697226E+00 2.686503887E+00
 1.307261348E+00 1.212681770E+00 2.690298080E+00
 1.310735106E+00 1.218656063E+00 2.694101810E+00
 1.314208150E+00 1.224658489E+00 2.697884083E+00
 1.317620158E+00 1.230702877E+00 2.701617241E+00
 1.320999742E+00 1.236793041E+00 2.705335140E+00
 1.324379325E+00 1.242901325E+00 2.709021091E+00
 1.327761054E+00 1.248989344E+00 2.712708950E+00
 1.331172347E+00 1.255080462E+00 2.716398716E+00
 1.334584832E+00 1.261170864E+00 2.720079422E+00
 1.337976336E+00 1.267287731E+00 2.723735809E+00
 1.341328263E+00 1.273447275E+00 2.727335453E+00
 1.344616055E+00 1.279697180E+00 2.730873108E+00
 1.347863078E+00 1.285990477E+00 2.734364033E+00
 1.351111293E+00 1.292283058E+00 2.737845421E+00
 1.354329705E+00 1.298609734E+00 2.741281509E+00
 1.357495666E+00 1.305007935E+00 2.744657993E+00
 1.360571742E+00 1.311481714E+00 2.747941017E+00
 1.363543868E+00 1.318060875E+00 2.751137733E+00
 1.366435409E+00 1.324698448E+00 2.754263401E+00
 1.369297147E+00 1.331397533E+00 2.757310867E+00
 1.371987700E+00 1.338212967E+00 2.760226250E+00
 1.374637008E+00 1.345081091E+00 2.763083935E+00
 1.377359986E+00 1.351897001E+00 2.765971184E+00
 1.380082011E+00 1.358722925E+00 2.768858433E+00
 1.382813334E+00 1.365531206E+00 2.771767139E+00
 1.385595918E+00 1.372297287E+00 2.774723530E+00
 1.388458371E+00 1.378977537E+00 2.777782917E+00
 1.391472220E+00 1.385521889E+00 2.781005859E+00
 1.394730687E+00 1.391805410E+00 2.784488201E+00
 1.398112655E+00 1.397939920E+00 2.788122654E+00
 1.401701331E+00 1.403808355E+00 2.791993618E+00
 1.405448556E+00 1.409424067E+00 2.796067238E+00
 1.409396768E+00 1.414705276E+00 2.800412178E+00
 1.413543582E+00 1.419571161E+00 2.805024624E+00
 1.417880177E+00 1.424000740E+00 2.809904099E+00
 1.422394156E+00 1.427912951E+00 2.815056801E+00
 1.427152514E+00 1.431131124E+00 2.820468903E+00
 1.432088971E+00 1.433683157E+00 2.826054096E+00
 1.437187791E+00 1.435536146E+00 2.831791878E+00
 1.442389846E+00 1.436619997E+00 2.837622643E+00
 1.447600484E+00 1.437106133E+00 2.843525887E+00
 1.452787995E+00 1.437039614E+00 2.849466801E+00
 1.457943082E+00 1.436437130E+00 2.855412006E+00
 1.463041902E+00 1.435365438E+00 2.861334801E+00
 1.468085170E+00 1.433933973E+00 2.867228508E+00
 1.473079085E+00 1.432101011E+00 2.873055458E+00
 1.478015780E+00 1.430039406E+00 2.878853321E+00
 1.482889533E+00 1.427550793E+00 2.884535313E+00
 1.487708688E+00 1.424812317E+00 2.890170097E+00
 1.492473960E+00 1.421944141E+00 2.895748615E+00
 1.497238278E+00 1.418984175E+00 2.901313782E+00
 1.501975417E+00 1.416000843E+00 2.906867981E+00
 1.506731868E+00 1.413029194E+00 2.912423134E+00
 1.511477113E+00 1.409983635E+00 2.917942524E+00
 1.516255498E+00 1.407011747E+00 2.923469067E+00
 1.521066070E+00 1.404271841E+00 2.929092884E+00
 1.525908113E+00 1.401615381E+00 2.934723377E+00
 1.530778766E+00 1.399064779E+00 2.940389156E+00
 1.535670400E+00 1.396681070E+00 2.946105480E+00
 1.540586829E+00 1.394433498E+00 2.951864719E+00
 1.545512795E+00 1.392288685E+00 2.957637787E+00
 1.550443769E+00 1.390194654E+00 2.963417053E+00
 1.555402398E+00 1.388123512E+00 2.969197750E+00
 1.560383677E+00 1.386126041E+00 2.974994659E+00
 1.565364242E+00 1.384230614E+00 2.980814934E+00
 1.570356727E+00 1.382417440E+00 2.986640453E+00
 1.575363278E+00 1.380657196E+00 2.992483616E+00
 1.580380321E+00 1.378896952E+00 2.998317242E+00
 1.585410237E+00 1.377126694E+00 3.004133224E+00
 1.590439677E+00 1.375355959E+00 3.009948254E+00
 1.595477462E+00 1.373606205E+00 3.015763283E+00
 1.600530267E+00 1.371908426E+00 3.021585464E+00
 1.605573773E+00 1.370292425E+00 3.027431488E+00
 1.610623717E+00 1.368707895E+00 3.033286095E+00
 1.615683913E+00 1.367133379E+00 3.039130688E+00
 1.620753646E+00 1.365559816E+00 3.044975758E+00
 1.625811219E+00 1.364005804E+00 3.050828934E+00
 1.629975915E+00 1.366852522E+00 3.045967579E+00
 1.633732200E+00 1.369986534E+00 3.041494370E+00
 1.636418223E+00 1.373639345E+00 3.035789013E+00
 1.640256286E+00 1.378042459E+00 3.030066490E+00
 1.644165158E+00 1.382598639E+00 3.024681568E+00
 1.647904038E+00 1.387204885E+00 3.019479752E+00
 1.651495576E+00 1.391851425E+00 3.014313221E+00
 1.655013442E+00 1.396532297E+00 3.009148121E+00
 1.658522248E+00 1.401221037E+00 3.003962517E+00
 1.662074208E+00 1.405891657E+00 2.998760223E+00
 1.665677428E+00 1.410473347E+00 2.993518829E+00
 1.669362903E+00 1.414939880E+00 2.988262177E+00
 1.673139691E+00 1.419200659E+00 2.982977390E+00
 1.677009463E+00 1.423226595E+00 2.977676392E+00
 1.680946946E+00 1.426983595E+00 2.972340107E+00
 1.684919715E+00 1.430387974E+00 2.966829777E+00
 1.688734651E+00 1.433352947E+00 2.961015701E+00
 1.692238927E+00 1.435738087E+00 2.954813480E+00
 1.695462108E+00 1.437556028E+00 2.948356152E+00
 1.698453069E+00 1.438858509E+00 2.941734791E+00
 1.701247573E+00 1.439679384E+00 2.934959412E+00
 1.703974128E+00 1.440095901E+00 2.927975655E+00
 1.706708074E+00 1.440137625E+00 2.920817375E+00
 1.709406257E+00 1.439812183E+00 2.913511276E+00
 1.712107301E+00 1.439151764E+00 2.906168461E+00
 1.714759469E+00 1.438163757E+00 2.898804188E+00
 1.717505813E+00 1.436948538E+00 2.891523361E+00
 1.720338225E+00 1.435597420E+00 2.884602547E+00
 1.723007798E+00 1.434225559E+00 2.878503799E+00
 1.723983645E+00 1.432289839E+00 2.872051716E+00
 1.725194573E+00 1.430055618E+00 2.864865780E+00
 1.726583838E+00 1.427690506E+00 2.857482910E+00
 1.728035331E+00 1.425254107E+00 2.850150108E+00
 1.729373336E+00 1.422747135E+00 2.842813015E+00
 1.730576396E+00 1.420187473E+00 2.835457802E+00
 1.731595874E+00 1.417615414E+00 2.828149319E+00
 1.732566714E+00 1.415019035E+00 2.820837498E+00
 1.733439803E+00 1.412385225E+00 2.813540936E+00
 1.734209657E+00 1.409699678E+00 2.806209087E+00
 1.734876275E+00 1.406933784E+00 2.798863888E+00
 1.735413671E+00 1.404073954E+00 2.791484833E+00
 1.735826612E+00 1.401050806E+00 2.784086227E+00
 1.736060262E+00 1.397882462E+00 2.776693344E+00
 1.736209512E+00 1.394443512E+00 2.769281864E+00
 1.736334682E+00 1.390692711E+00 2.761899948E+00
 1.736694217E+00 1.386551380E+00 2.754806995E+00
 1.738364339E+00 1.382714748E+00 2.750347137E+00
 1.735657573E+00 1.381393671E+00 2.745083809E+00
 1.733815551E+00 1.378064871E+00 2.737900734E+00
 1.732237697E+00 1.374357462E+00 2.730735779E+00
 1.730671048E+00 1.370613337E+00 2.723735809E+00
 1.729022384E+00 1.366900921E+00 2.716847420E+00
 1.727247596E+00 1.363285065E+00 2.710042000E+00
 1.725311637E+00 1.359749317E+00 2.703278065E+00
 1.723204017E+00 1.356283188E+00 2.696565628E+00
 1.720917106E+00 1.352865696E+00 2.689894676E+00
 1.718441129E+00 1.349468946E+00 2.683307171E+00
 1.715808511E+00 1.346083164E+00 2.676907063E+00
 1.713011146E+00 1.342734098E+00 2.670772076E+00
 1.709997535E+00 1.339594364E+00 2.664977074E+00
 1.706369758E+00 1.336849213E+00 2.659364223E+00
 1.702315688E+00 1.334175587E+00 2.653710842E+00
 1.697940469E+00 1.331503630E+00 2.648040295E+00
 1.693290830E+00 1.328923464E+00 2.642431259E+00
 1.688410163E+00 1.326462984E+00 2.636925220E+00
 1.683267951E+00 1.324138403E+00 2.631518364E+00
 1.677882075E+00 1.321944475E+00 2.626242638E+00
 1.672305942E+00 1.319808960E+00 2.621148586E+00
 1.666625857E+00 1.317659140E+00 2.616248608E+00
 1.661085963E+00 1.315465450E+00 2.611664295E+00
 1.656036735E+00 1.313367844E+00 2.607657433E+00
 1.650106788E+00 1.312664032E+00 2.604414940E+00
 1.643467784E+00 1.311770678E+00 2.600935936E+00
 1.636554122E+00 1.310709953E+00 2.597414494E+00
 1.629547954E+00 1.309616804E+00 2.593968868E+00
 1.622497916E+00 1.308587790E+00 2.590615749E+00
 1.615421653E+00 1.307645559E+00 2.587374687E+00
 1.608327508E+00 1.306801081E+00 2.584246159E+00
 1.601205945E+00 1.306035042E+00 2.581250191E+00
 1.594065309E+00 1.305349827E+00 2.578408241E+00
 1.586852431E+00 1.304743528E+00 2.575756073E+00
 1.579568505E+00 1.304187775E+00 2.573315620E+00
 1.572201371E+00 1.303655386E+00 2.571137905E+00
 1.564726233E+00 1.303093910E+00 2.569225311E+00
 1.557187200E+00 1.302475214E+00 2.567552567E+00
 1.549615026E+00 1.301782846E+00 2.566133499E+00
 1.542012572E+00 1.301014423E+00 2.564938545E+00
 1.534366250E+00 1.300209045E+00 2.563964367E+00
 1.526710629E+00 1.299355984E+00 2.563163757E+00
 1.519046664E+00 1.298472881E+00 2.562504768E+00
 1.511374116E+00 1.297588110E+00 2.561966419E+00
 1.503692985E+00 1.296719551E+00 2.561516285E+00
 1.496012568E+00 1.295859814E+00 2.561176300E+00
 1.488331914E+00 1.295037031E+00 2.560924530E+00
 1.480626702E+00 1.294253349E+00 2.560818672E+00
 1.472904563E+00 1.293502331E+00 2.560890198E+00
 1.465177894E+00 1.292764664E+00 2.561141968E+00
 1.457505345E+00 1.292008877E+00 2.561620235E+00
 1.449722886E+00 1.291151762E+00 2.562207222E+00
 1.441987872E+00 1.290199518E+00 2.562945366E+00
 1.434366584E+00 1.289114952E+00 2.563803673E+00
 1.426977754E+00 1.287909269E+00 2.564789772E+00
 1.419911981E+00 1.286626577E+00 2.565989494E+00
 1.413051248E+00 1.285283089E+00 2.567864418E+00
 1.406074405E+00 1.283704519E+00 2.570088387E+00
 1.399113774E+00 1.281863451E+00 2.572543144E+00
 1.392226100E+00 1.279730558E+00 2.575175762E+00
 1.385504365E+00 1.277310610E+00 2.577952862E+00
 1.379015803E+00 1.274631023E+00 2.580888271E+00
 1.372861981E+00 1.271707535E+00 2.584080219E+00
 1.367094398E+00 1.268570662E+00 2.587600708E+00
 1.361801982E+00 1.265257597E+00 2.591706753E+00
 1.357071519E+00 1.261842728E+00 2.596349716E+00
 1.352800727E+00 1.258291006E+00 2.601452827E+00
 1.348792195E+00 1.254510403E+00 2.606694698E+00
 1.344878793E+00 1.250428915E+00 2.611975670E+00
 1.341085553E+00 1.246126652E+00 2.617262363E+00
 1.337439179E+00 1.241655111E+00 2.622542381E+00
 1.333882689E+00 1.237089157E+00 2.627806664E+00
 1.330405593E+00 1.232439280E+00 2.633063793E+00
 1.326959491E+00 1.227781296E+00 2.638313293E+00
 1.323505282E+00 1.223111391E+00 2.643553257E+00
 1.319990277E+00 1.218464613E+00 2.648766041E+00
 1.316374898E+00 1.213847399E+00 2.653948784E+00
 1.312639117E+00 1.209339857E+00 2.658992767E+00
 1.308871627E+00 1.205099106E+00 2.663743973E+00
 1.305208802E+00 1.201406956E+00 2.668706894E+00
 1.301288486E+00 1.197940111E+00 2.673742771E+00
 1.304573655E+00 1.203233004E+00 2.677659512E+00
 1.307772040E+00 1.208542824E+00 2.681376457E+00
 1.311276317E+00 1.214140654E+00 2.684706688E+00
 1.314830422E+00 1.219982862E+00 2.688274860E+00
 1.318345904E+00 1.225866795E+00 2.691907883E+00
 1.321901441E+00 1.231809139E+00 2.695469379E+00
 1.325465322E+00 1.237846136E+00 2.699075222E+00
 1.328991055E+00 1.243924618E+00 2.702735901E+00
 1.332494378E+00 1.250012398E+00 2.706413269E+00
 1.335957170E+00 1.256124973E+00 2.710066319E+00
 1.339378238E+00 1.262244463E+00 2.713724613E+00
 1.342769265E+00 1.268389702E+00 2.717359066E+00
 1.346119285E+00 1.274550915E+00 2.720978737E+00
 1.349417806E+00 1.280745506E+00 2.724571228E+00
 1.352697015E+00 1.286984682E+00 2.728109360E+00
 1.355916142E+00 1.293255329E+00 2.731599808E+00
 1.359094739E+00 1.299569130E+00 2.735043526E+00
 1.362232566E+00 1.305953979E+00 2.738408566E+00
 1.365308881E+00 1.312399626E+00 2.741713524E+00
 1.368323445E+00 1.318915606E+00 2.744958401E+00
 1.371267438E+00 1.325500011E+00 2.748122215E+00
 1.374161601E+00 1.332144499E+00 2.751206875E+00
 1.376972795E+00 1.338867664E+00 2.754229069E+00
 1.379722238E+00 1.345652103E+00 2.757201672E+00
 1.382451415E+00 1.352471828E+00 2.760129452E+00
 1.385189891E+00 1.359293222E+00 2.763068199E+00
 1.387968659E+00 1.366080523E+00 2.766043186E+00
 1.390786529E+00 1.372807264E+00 2.769105434E+00
 1.393710494E+00 1.379408360E+00 2.772246361E+00
 1.396737695E+00 1.385877132E+00 2.775516033E+00
 1.399925828E+00 1.392219543E+00 2.778927803E+00
 1.403294206E+00 1.398402214E+00 2.782547951E+00
 1.406828523E+00 1.404353380E+00 2.786378384E+00
 1.410524487E+00 1.410002947E+00 2.790425301E+00
 1.414471745E+00 1.415423632E+00 2.794750214E+00
 1.418601394E+00 1.420451164E+00 2.799389839E+00
 1.422990918E+00 1.425048828E+00 2.804302692E+00
 1.427561641E+00 1.429042339E+00 2.809403419E+00
 1.432413936E+00 1.432449579E+00 2.814941406E+00
 1.437395692E+00 1.435055733E+00 2.820656776E+00
 1.442651153E+00 1.436897516E+00 2.826600075E+00
 1.447982192E+00 1.437983751E+00 2.832581997E+00
 1.453318954E+00 1.438401222E+00 2.838370323E+00
 1.458608747E+00 1.438211679E+00 2.844428539E+00
 1.463779330E+00 1.437504530E+00 2.850432396E+00
 1.468952537E+00 1.436342239E+00 2.856409073E+00
 1.474064708E+00 1.434798002E+00 2.862325668E+00
 1.479103684E+00 1.432908773E+00 2.868160248E+00