TITLE     = "| |"
VARIABLES = "X"
"Y"
"Z"
ZONE T="ZONE 001"
 STRANDID=0, SOLUTIONTIME=0
 Nodes=5704, Elements=5702, ZONETYPE=FEQuadrilateral
 DATAPACKING=POINT
 DT=(SINGLE SINGLE SINGLE )
 1.158514380E+00 1.643321991E+00 2.952221870E+00
 1.151732326E+00 1.639447689E+00 2.946535587E+00
 1.275503993E+00 1.199413300E+00 2.671133518E+00
 1.161620259E+00 1.647499084E+00 2.946333408E+00
 1.165036082E+00 1.651804209E+00 2.940713882E+00
 1.168658376E+00 1.656148672E+00 2.935249329E+00
 1.172517657E+00 1.660561800E+00 2.930020809E+00
 1.176544785E+00 1.665000200E+00 2.924935818E+00
 1.180638909E+00 1.669428349E+00 2.919907093E+00
 1.184778094E+00 1.673819304E+00 2.914864540E+00
 1.188994527E+00 1.678191423E+00 2.909890175E+00
 1.193276525E+00 1.682573318E+00 2.904961109E+00
 1.197426200E+00 1.686954975E+00 2.899920464E+00
 1.201566100E+00 1.691335917E+00 2.894878387E+00
 1.205537438E+00 1.695701361E+00 2.889693260E+00
 1.209382176E+00 1.700025320E+00 2.884369373E+00
 1.213029504E+00 1.704320431E+00 2.878890038E+00
 1.216470838E+00 1.708779335E+00 2.873412609E+00
 1.219543815E+00 1.713316679E+00 2.867787838E+00
 1.222383618E+00 1.717310667E+00 2.861648560E+00
 1.225094199E+00 1.720259905E+00 2.854887962E+00
 1.227572322E+00 1.722425699E+00 2.847760677E+00
 1.229700923E+00 1.724192381E+00 2.840410709E+00
 1.231439948E+00 1.725824356E+00 2.832917213E+00
 1.232830882E+00 1.727277756E+00 2.825316429E+00
 1.233889937E+00 1.728464603E+00 2.817625999E+00
 1.234635711E+00 1.729305506E+00 2.809843540E+00
 1.235109687E+00 1.729847908E+00 2.802018642E+00
 1.235338092E+00 1.730116606E+00 2.794172764E+00
 1.235317826E+00 1.730141401E+00 2.786313057E+00
 1.235067248E+00 1.729926109E+00 2.778460979E+00
 1.234656215E+00 1.729457378E+00 2.770633221E+00
 1.234085917E+00 1.728734732E+00 2.762820244E+00
 1.233393550E+00 1.727763653E+00 2.755054951E+00
 1.232638955E+00 1.726567984E+00 2.747319698E+00
 1.231849790E+00 1.725161314E+00 2.739626884E+00
 1.231034160E+00 1.723555565E+00 2.731986046E+00
 1.230252862E+00 1.721782684E+00 2.724359989E+00
 1.229530692E+00 1.719886303E+00 2.716767311E+00
 1.228878379E+00 1.717866659E+00 2.709199905E+00
 1.228255153E+00 1.715712309E+00 2.701673985E+00
 1.227671742E+00 1.713423014E+00 2.694180965E+00
 1.227086663E+00 1.711014748E+00 2.686716557E+00
 1.226510167E+00 1.708470345E+00 2.679302692E+00
 1.225921988E+00 1.705797434E+00 2.671936512E+00
 1.225332618E+00 1.702968359E+00 2.664631844E+00
 1.224715590E+00 1.699941397E+00 2.657399178E+00
 1.224041104E+00 1.696666956E+00 2.650289536E+00
 1.223348737E+00 1.693167925E+00 2.643284798E+00
 1.222667575E+00 1.689456463E+00 2.636386871E+00
 1.222005010E+00 1.685544968E+00 2.629614830E+00
 1.221382022E+00 1.681443214E+00 2.622940063E+00
 1.220836520E+00 1.677193880E+00 2.616352558E+00
 1.220397830E+00 1.672826529E+00 2.609821796E+00
 1.220073104E+00 1.668364525E+00 2.603368282E+00
 1.219883561E+00 1.663797855E+00 2.596973419E+00
 1.219848514E+00 1.659148216E+00 2.590637684E+00
 1.219958425E+00 1.654376507E+00 2.584393024E+00
 1.220203519E+00 1.649464130E+00 2.578259468E+00
 1.220573783E+00 1.644364119E+00 2.572291374E+00
 1.221068740E+00 1.639057875E+00 2.566518784E+00
 1.221686959E+00 1.633537054E+00 2.560962200E+00
 1.222408175E+00 1.627764702E+00 2.555673599E+00
 1.223268628E+00 1.621791840E+00 2.550642490E+00
 1.224307895E+00 1.615632772E+00 2.545870304E+00
 1.225561976E+00 1.609339476E+00 2.541337013E+00
 1.227040410E+00 1.602922440E+00 2.537041664E+00
 1.228761315E+00 1.596422911E+00 2.532974243E+00
 1.230751395E+00 1.589872360E+00 2.529124260E+00
 1.232962012E+00 1.583238840E+00 2.525519371E+00
 1.235348105E+00 1.576532125E+00 2.522205830E+00
 1.237880826E+00 1.569730043E+00 2.519193172E+00
 1.240538239E+00 1.562841892E+00 2.516488552E+00
 1.243278861E+00 1.555874586E+00 2.514107704E+00
 1.246081948E+00 1.548828125E+00 2.512060642E+00
 1.248957992E+00 1.541719675E+00 2.510304928E+00
 1.251917481E+00 1.534606218E+00 2.508788109E+00
 1.254981637E+00 1.527488232E+00 2.507481575E+00
 1.258130908E+00 1.520372391E+00 2.506372929E+00
 1.261387706E+00 1.513286352E+00 2.505402088E+00
 1.264751315E+00 1.506231070E+00 2.504579067E+00
 1.268192649E+00 1.499193430E+00 2.503901958E+00
 1.271690249E+00 1.492173433E+00 2.503389359E+00
 1.275214314E+00 1.485158920E+00 2.503048897E+00
 1.278752446E+00 1.478142023E+00 2.502922058E+00
 1.282254100E+00 1.471109390E+00 2.503023624E+00
 1.285710454E+00 1.464059591E+00 2.503344536E+00
 1.289099336E+00 1.456992149E+00 2.503902435E+00
 1.292381406E+00 1.449894428E+00 2.504704952E+00
 1.295600533E+00 1.442785740E+00 2.505694389E+00
 1.298765302E+00 1.435685158E+00 2.506849766E+00
 1.301879287E+00 1.428590059E+00 2.508130550E+00
 1.304961801E+00 1.421502829E+00 2.509549618E+00
 1.308003306E+00 1.414422750E+00 2.511105537E+00
 1.311041236E+00 1.407373190E+00 2.512799263E+00
 1.314066768E+00 1.400352478E+00 2.514621258E+00
 1.317108750E+00 1.393373489E+00 2.516572475E+00
 1.320154786E+00 1.386446476E+00 2.518671036E+00
 1.323174834E+00 1.379550219E+00 2.520936489E+00
 1.326118827E+00 1.372680902E+00 2.523374557E+00
 1.328952909E+00 1.365848780E+00 2.526022434E+00
 1.331669688E+00 1.359031677E+00 2.528860569E+00
 1.334187865E+00 1.352242470E+00 2.531891346E+00
 1.336498857E+00 1.345461369E+00 2.535125256E+00
 1.338572621E+00 1.338694334E+00 2.538539886E+00
 1.340351701E+00 1.331925392E+00 2.542120934E+00
 1.341825604E+00 1.325172424E+00 2.545856476E+00
 1.342972398E+00 1.318444729E+00 2.549754620E+00
 1.343747735E+00 1.311769962E+00 2.553838730E+00
 1.344098449E+00 1.305183411E+00 2.558092594E+00
 1.344043374E+00 1.298651218E+00 2.562459469E+00
 1.343570113E+00 1.292146683E+00 2.566859722E+00
 1.342682958E+00 1.285684824E+00 2.571222782E+00
 1.341272473E+00 1.279412508E+00 2.575750351E+00
 1.339295030E+00 1.273679972E+00 2.580725193E+00
 1.336677194E+00 1.268816233E+00 2.586309910E+00
 1.333531260E+00 1.264515877E+00 2.592082977E+00
 1.330053210E+00 1.260170698E+00 2.597640038E+00
 1.326452613E+00 1.255688906E+00 2.602995872E+00
 1.322630286E+00 1.251281500E+00 2.608256817E+00
 1.318652511E+00 1.246958494E+00 2.613478661E+00
 1.314493299E+00 1.242704391E+00 2.618620872E+00
 1.310305238E+00 1.238456249E+00 2.623739719E+00
 1.305957913E+00 1.234267712E+00 2.628760338E+00
 1.301661372E+00 1.230045795E+00 2.633818150E+00
 1.297532201E+00 1.225785255E+00 2.638972759E+00
 1.293367028E+00 1.221573114E+00 2.644141197E+00
 1.289318919E+00 1.217346191E+00 2.649381161E+00
 1.285421968E+00 1.213056803E+00 2.654687881E+00
 1.281823754E+00 1.208618164E+00 2.660080433E+00
 1.278478265E+00 1.204097986E+00 2.665570736E+00
 1.266684413E+00 1.203291655E+00 2.670315742E+00
 1.154350638E+00 1.644005775E+00 2.940901756E+00
 1.157411933E+00 1.648515940E+00 2.935459137E+00
 1.160767198E+00 1.653056383E+00 2.930220127E+00
 1.164351344E+00 1.657598495E+00 2.925140381E+00
 1.168104768E+00 1.662165403E+00 2.920194626E+00
 1.171993852E+00 1.666709900E+00 2.915331841E+00
 1.175996423E+00 1.671187639E+00 2.910523415E+00
 1.180050015E+00 1.675649881E+00 2.905720234E+00
 1.184112906E+00 1.680114031E+00 2.900928020E+00
 1.188164115E+00 1.684587717E+00 2.896143913E+00
 1.192170501E+00 1.689043760E+00 2.891307354E+00
 1.196111560E+00 1.693499088E+00 2.886404514E+00
 1.199917197E+00 1.697901726E+00 2.881363392E+00
 1.203554988E+00 1.702279329E+00 2.876179695E+00
 1.206942201E+00 1.706737280E+00 2.870878220E+00
 1.209951282E+00 1.711401939E+00 2.865541458E+00
 1.212784410E+00 1.715743303E+00 2.859860420E+00
 1.215486407E+00 1.719050169E+00 2.853446007E+00
 1.217978597E+00 1.721499681E+00 2.846581936E+00
 1.220140100E+00 1.723395586E+00 2.839436531E+00
 1.221926332E+00 1.725015879E+00 2.832129002E+00
 1.223354459E+00 1.726373196E+00 2.824678898E+00
 1.224443078E+00 1.727443218E+00 2.817140102E+00
 1.225213647E+00 1.728208065E+00 2.809515953E+00
 1.225718379E+00 1.728623390E+00 2.801833153E+00
 1.225961804E+00 1.728713036E+00 2.794131756E+00
 1.225952744E+00 1.728479624E+00 2.786432266E+00
 1.225767255E+00 1.727960348E+00 2.778747082E+00
 1.225431323E+00 1.727179527E+00 2.771099091E+00
 1.224959254E+00 1.726097822E+00 2.763480186E+00
 1.224394917E+00 1.724770308E+00 2.755911350E+00
 1.223799586E+00 1.723182917E+00 2.748398304E+00
 1.223211646E+00 1.721358776E+00 2.740942955E+00
 1.222692132E+00 1.719282866E+00 2.733540535E+00
 1.222225547E+00 1.717034101E+00 2.726185799E+00
 1.221794486E+00 1.714700460E+00 2.718859673E+00
 1.221397281E+00 1.712319374E+00 2.711539745E+00
 1.221064687E+00 1.709865093E+00 2.704249859E+00
 1.220799088E+00 1.707337379E+00 2.696971416E+00
 1.220567584E+00 1.704724550E+00 2.689731598E+00
 1.220332026E+00 1.702023745E+00 2.682518005E+00
 1.220051885E+00 1.699231148E+00 2.675347328E+00
 1.219719529E+00 1.696297646E+00 2.668232441E+00
 1.219336867E+00 1.693193913E+00 2.661186218E+00
 1.218863368E+00 1.689889669E+00 2.654245853E+00
 1.218292117E+00 1.686326027E+00 2.647447109E+00
 1.217714906E+00 1.682471514E+00 2.640799046E+00
 1.217338204E+00 1.678459406E+00 2.634229183E+00
 1.216930270E+00 1.674435377E+00 2.627676964E+00
 1.216415048E+00 1.670326710E+00 2.621182919E+00
 1.216017842E+00 1.666063547E+00 2.614779472E+00
 1.215696216E+00 1.661690712E+00 2.608440399E+00
 1.215498328E+00 1.657214165E+00 2.602179050E+00
 1.215446830E+00 1.652624846E+00 2.595989227E+00
 1.215548873E+00 1.647943020E+00 2.589868069E+00
 1.215794683E+00 1.643141031E+00 2.583858013E+00
 1.216145396E+00 1.638176680E+00 2.577979088E+00
 1.216621757E+00 1.632996321E+00 2.572296143E+00
 1.217232585E+00 1.627574682E+00 2.566853046E+00
 1.217984319E+00 1.621896267E+00 2.561711788E+00
 1.218905807E+00 1.616019964E+00 2.556818962E+00
 1.220006108E+00 1.609966755E+00 2.552175522E+00
 1.221290708E+00 1.603786230E+00 2.547767639E+00
 1.222789645E+00 1.597500086E+00 2.543575764E+00
 1.224492669E+00 1.591135025E+00 2.539577961E+00
 1.226406455E+00 1.584713221E+00 2.535782337E+00
 1.228491902E+00 1.578203440E+00 2.532218933E+00
 1.230734706E+00 1.571616411E+00 2.528924942E+00
 1.233133674E+00 1.564935684E+00 2.525933266E+00
 1.235667825E+00 1.558178663E+00 2.523239136E+00
 1.238314033E+00 1.551337004E+00 2.520892620E+00
 1.241072536E+00 1.544437885E+00 2.518850803E+00
 1.243911386E+00 1.537490129E+00 2.517131329E+00
 1.246833205E+00 1.530509949E+00 2.515682697E+00
 1.249838948E+00 1.523523569E+00 2.514452457E+00
 1.252932906E+00 1.516546726E+00 2.513379574E+00
 1.256114364E+00 1.509597778E+00 2.512443066E+00
 1.259366155E+00 1.502664089E+00 2.511622429E+00
 1.262668967E+00 1.495733261E+00 2.510916233E+00
 1.266039729E+00 1.488837957E+00 2.510333538E+00
 1.269497275E+00 1.481962204E+00 2.509907722E+00
 1.272978902E+00 1.475094080E+00 2.509685040E+00
 1.276339650E+00 1.468161106E+00 2.509667397E+00
 1.279578805E+00 1.461173296E+00 2.509855270E+00
 1.282714009E+00 1.454152822E+00 2.510257721E+00
 1.285756946E+00 1.447098732E+00 2.510846138E+00
 1.288708806E+00 1.440028906E+00 2.511589050E+00
 1.291592240E+00 1.432933331E+00 2.512468815E+00
 1.294427752E+00 1.425841331E+00 2.513444901E+00
 1.297235847E+00 1.418744564E+00 2.514519691E+00
 1.300035596E+00 1.411664009E+00 2.515683174E+00
 1.302839637E+00 1.404597998E+00 2.516906261E+00
 1.305685401E+00 1.397552490E+00 2.518211842E+00
 1.308560967E+00 1.390546799E+00 2.519607544E+00
 1.311442733E+00 1.383573055E+00 2.521152973E+00
 1.314318299E+00 1.376631975E+00 2.522866249E+00
 1.317173600E+00 1.369735241E+00 2.524785519E+00
 1.319966197E+00 1.362891436E+00 2.526937962E+00
 1.322635531E+00 1.356077433E+00 2.529349327E+00
 1.325144887E+00 1.349286318E+00 2.531976700E+00
 1.327465415E+00 1.342515707E+00 2.534809113E+00
 1.329555869E+00 1.335753202E+00 2.537872314E+00
 1.331375718E+00 1.329023838E+00 2.541142464E+00
 1.332873225E+00 1.322324753E+00 2.544634819E+00
 1.334019303E+00 1.315662146E+00 2.548336506E+00
 1.334759593E+00 1.309072018E+00 2.552251339E+00
 1.335073352E+00 1.302572012E+00 2.556365013E+00
 1.334969878E+00 1.296135664E+00 2.560590267E+00
 1.334469914E+00 1.289727449E+00 2.564831257E+00
 1.333469272E+00 1.283434391E+00 2.569162846E+00
 1.331895709E+00 1.277510643E+00 2.573822975E+00
 1.329669118E+00 1.272254705E+00 2.578985214E+00
 1.326812625E+00 1.267933130E+00 2.584682941E+00
 1.323604703E+00 1.263979912E+00 2.590456486E+00
 1.320145965E+00 1.259811878E+00 2.595942497E+00
 1.316461921E+00 1.255621195E+00 2.601250648E+00
 1.312573075E+00 1.251528263E+00 2.606483936E+00
 1.308531165E+00 1.247498989E+00 2.611670017E+00
 1.304397941E+00 1.243518353E+00 2.616804600E+00
 1.300212741E+00 1.239572525E+00 2.621922970E+00
 1.296019912E+00 1.235604763E+00 2.627031803E+00
 1.291846395E+00 1.231639862E+00 2.632152081E+00
 1.287701249E+00 1.227669001E+00 2.637294769E+00
 1.283666730E+00 1.223735332E+00 2.642535686E+00
 1.279769301E+00 1.219769239E+00 2.647860050E+00
 1.276050925E+00 1.215745926E+00 2.653284073E+00
 1.272574306E+00 1.211639404E+00 2.658804417E+00
 1.269416928E+00 1.207458973E+00 2.664446831E+00
 1.156893134E+00 1.634732723E+00 2.943152905E+00
 1.162109494E+00 1.630119085E+00 2.939718246E+00
 1.167362094E+00 1.625585556E+00 2.936240196E+00
 1.172652841E+00 1.621085167E+00 2.932753086E+00
 1.177969098E+00 1.616636992E+00 2.929264545E+00
 1.183294415E+00 1.612162590E+00 2.925817966E+00
 1.188620448E+00 1.607640982E+00 2.922415733E+00
 1.193946004E+00 1.603111506E+00 2.919034481E+00
 1.199298739E+00 1.598586559E+00 2.915684700E+00
 1.204668880E+00 1.594074726E+00 2.912355900E+00
 1.210048318E+00 1.589573383E+00 2.909027100E+00
 1.215454459E+00 1.585114241E+00 2.905687332E+00
 1.220889926E+00 1.580685854E+00 2.902328014E+00
 1.226349950E+00 1.576329231E+00 2.898955345E+00
 1.231840014E+00 1.572003126E+00 2.895553112E+00
 1.237372279E+00 1.567733526E+00 2.892180443E+00
 1.242960572E+00 1.563509226E+00 2.888819695E+00
 1.248611331E+00 1.559343338E+00 2.885489941E+00
 1.254322886E+00 1.555246592E+00 2.882211208E+00
 1.260116696E+00 1.551210165E+00 2.878964424E+00
 1.265980124E+00 1.547234774E+00 2.875789642E+00
 1.271941304E+00 1.543344259E+00 2.872678280E+00
 1.277981639E+00 1.539515972E+00 2.869648933E+00
 1.284118295E+00 1.535773277E+00 2.866702557E+00
 1.290323615E+00 1.532111406E+00 2.863816261E+00
 1.296581626E+00 1.528506756E+00 2.860960484E+00
 1.302866101E+00 1.524944544E+00 2.858103752E+00
 1.309107423E+00 1.521372795E+00 2.855174065E+00
 1.315286517E+00 1.517769814E+00 2.852160931E+00
 1.321353078E+00 1.514067411E+00 2.849034786E+00
 1.327280164E+00 1.510232925E+00 2.845785141E+00
 1.333018184E+00 1.506242752E+00 2.842420578E+00
 1.338553309E+00 1.502054214E+00 2.838922024E+00
 1.343825698E+00 1.497688532E+00 2.835252762E+00
 1.348851562E+00 1.493132830E+00 2.831475258E+00
 1.353564143E+00 1.488332510E+00 2.827608585E+00
 1.357859492E+00 1.483217716E+00 2.823649406E+00
 1.361618400E+00 1.477749586E+00 2.819619179E+00
 1.364738584E+00 1.471940279E+00 2.815519333E+00
 1.367133975E+00 1.465806961E+00 2.811411858E+00
 1.368824601E+00 1.459424734E+00 2.807333469E+00
 1.369762063E+00 1.452834129E+00 2.803338051E+00
 1.369967341E+00 1.446119070E+00 2.799450397E+00
 1.369443059E+00 1.439333200E+00 2.795708179E+00
 1.368291259E+00 1.432547092E+00 2.792134762E+00
 1.366603255E+00 1.425786734E+00 2.788696766E+00
 1.364560485E+00 1.419073820E+00 2.785355091E+00
 1.362171292E+00 1.412448883E+00 2.782100201E+00
 1.359459043E+00 1.405938148E+00 2.778850079E+00
 1.356440425E+00 1.399545670E+00 2.775646210E+00
 1.353188634E+00 1.393237352E+00 2.772488117E+00
 1.349735141E+00 1.387025118E+00 2.769356251E+00
 1.346132398E+00 1.380909920E+00 2.766214848E+00
 1.342414737E+00 1.374854326E+00 2.763060570E+00
 1.338663697E+00 1.368854284E+00 2.759878635E+00
 1.334936023E+00 1.362843990E+00 2.756669521E+00
 1.331294894E+00 1.356806993E+00 2.753409386E+00
 1.327760100E+00 1.350718021E+00 2.750141144E+00
 1.324343801E+00 1.344566584E+00 2.746847630E+00
 1.321054101E+00 1.338364363E+00 2.743537426E+00
 1.317882180E+00 1.332081795E+00 2.740232944E+00
 1.314824700E+00 1.325777531E+00 2.736909389E+00
 1.311853528E+00 1.319418430E+00 2.733566761E+00
 1.308987021E+00 1.313036680E+00 2.730204105E+00
 1.306194425E+00 1.306629896E+00 2.726829529E+00
 1.303475976E+00 1.300198078E+00 2.723432541E+00
 1.300800920E+00 1.293757439E+00 2.720009327E+00
 1.298178792E+00 1.287318230E+00 2.716550827E+00
 1.295610309E+00 1.280889511E+00 2.713035107E+00
 1.293064713E+00 1.274469376E+00 2.709470749E+00
 1.290561795E+00 1.268059731E+00 2.705868721E+00
 1.288079619E+00 1.261651039E+00 2.702258587E+00
 1.285628676E+00 1.255225420E+00 2.698652267E+00
 1.283177018E+00 1.248772621E+00 2.695087910E+00
 1.280744433E+00 1.242294550E+00 2.691566944E+00
 1.278310895E+00 1.235789776E+00 2.688088417E+00
 1.275897384E+00 1.229277372E+00 2.684621811E+00
 1.273516297E+00 1.222756147E+00 2.681138515E+00
 1.271178126E+00 1.216245413E+00 2.677608013E+00
 1.268903375E+00 1.209754944E+00 2.674010754E+00
 1.163821816E+00 1.638696432E+00 2.948664188E+00
 1.169148326E+00 1.634083033E+00 2.945107937E+00
 1.174492002E+00 1.629482269E+00 2.941571712E+00
 1.179836631E+00 1.624881029E+00 2.938025475E+00
 1.185172439E+00 1.620278120E+00 2.934468746E+00
 1.190553308E+00 1.615710974E+00 2.930933952E+00
 1.195978999E+00 1.611180067E+00 2.927429676E+00
 1.201440930E+00 1.606683493E+00 2.923936367E+00
 1.206930041E+00 1.602219343E+00 2.920443058E+00
 1.212410092E+00 1.597744465E+00 2.916949272E+00
 1.217871785E+00 1.593266487E+00 2.913434982E+00
 1.223343968E+00 1.588798285E+00 2.909910679E+00
 1.228832841E+00 1.584352732E+00 2.906395912E+00
 1.234386086E+00 1.579964399E+00 2.902902603E+00
 1.240028024E+00 1.575658321E+00 2.899461269E+00
 1.245716214E+00 1.571386814E+00 2.896031380E+00
 1.251412034E+00 1.567146540E+00 2.892600060E+00
 1.257153153E+00 1.562950850E+00 2.889179230E+00
 1.262957215E+00 1.558813334E+00 2.885789871E+00
 1.268859029E+00 1.554769278E+00 2.882462502E+00
 1.274875760E+00 1.550841331E+00 2.879197121E+00
 1.280970454E+00 1.547004223E+00 2.875991821E+00
 1.287129998E+00 1.543224573E+00 2.872798443E+00
 1.293435216E+00 1.539626360E+00 2.869715214E+00
 1.299784303E+00 1.536074400E+00 2.866662025E+00
 1.306081176E+00 1.532483339E+00 2.863547325E+00
 1.312387586E+00 1.528893471E+00 2.860443115E+00
 1.318676353E+00 1.525290728E+00 2.857317924E+00
 1.324913383E+00 1.521620989E+00 2.854163647E+00
 1.331052423E+00 1.517839193E+00 2.850968361E+00
 1.337034345E+00 1.513875484E+00 2.847682476E+00
 1.342721581E+00 1.509623528E+00 2.844240665E+00
 1.348228335E+00 1.505200386E+00 2.840736389E+00
 1.353454709E+00 1.500522614E+00 2.837115288E+00
 1.358396888E+00 1.495613098E+00 2.833406448E+00
 1.362977624E+00 1.490424871E+00 2.829616547E+00
 1.367108703E+00 1.484949112E+00 2.825728416E+00
 1.370786309E+00 1.479189634E+00 2.821792603E+00
 1.373920560E+00 1.473138332E+00 2.817801952E+00
 1.376338363E+00 1.466838360E+00 2.813728333E+00
 1.378052831E+00 1.460334301E+00 2.809609890E+00
 1.379065871E+00 1.453689575E+00 2.805483341E+00
 1.379300237E+00 1.446950197E+00 2.801378727E+00
 1.378926635E+00 1.440167427E+00 2.797377586E+00
 1.378023267E+00 1.433366776E+00 2.793473721E+00
 1.376593947E+00 1.426591635E+00 2.789695263E+00
 1.374719262E+00 1.419867992E+00 2.786027908E+00
 1.372488379E+00 1.413192749E+00 2.782466888E+00
 1.369860768E+00 1.406601667E+00 2.778998375E+00
 1.367020249E+00 1.400068998E+00 2.775608540E+00
 1.363776565E+00 1.393662214E+00 2.772336483E+00
 1.360287547E+00 1.387341022E+00 2.769139290E+00
 1.356678843E+00 1.381074190E+00 2.765998363E+00
 1.352984548E+00 1.374832153E+00 2.762878418E+00
 1.349269032E+00 1.368599892E+00 2.759776592E+00
 1.345564008E+00 1.362367392E+00 2.756665707E+00
 1.341784596E+00 1.356179237E+00 2.753555298E+00
 1.338079095E+00 1.349965572E+00 2.750422478E+00
 1.334579587E+00 1.343653202E+00 2.747223377E+00
 1.331175208E+00 1.337316513E+00 2.743993759E+00
 1.327869058E+00 1.330934048E+00 2.740715504E+00
 1.324721217E+00 1.324492931E+00 2.737413883E+00
 1.321711183E+00 1.318010330E+00 2.734076977E+00
 1.318785071E+00 1.311503172E+00 2.730717659E+00
 1.315914035E+00 1.304968357E+00 2.727335453E+00
 1.313074470E+00 1.298444271E+00 2.723925114E+00
 1.310287595E+00 1.291903257E+00 2.720499516E+00
 1.307605863E+00 1.285338879E+00 2.717044353E+00
 1.305009007E+00 1.278740644E+00 2.713578701E+00
 1.302442908E+00 1.272143364E+00 2.710095406E+00
 1.299898744E+00 1.265546799E+00 2.706593990E+00
 1.297334313E+00 1.258958340E+00 2.703089714E+00
 1.294769406E+00 1.252378941E+00 2.699575424E+00
 1.292226911E+00 1.245790243E+00 2.696043491E+00
 1.289736390E+00 1.239185333E+00 2.692506313E+00
 1.287318826E+00 1.232565403E+00 2.688956261E+00
 1.284933209E+00 1.225937843E+00 2.685400009E+00
 1.282557845E+00 1.219310284E+00 2.681833744E+00
 1.280192256E+00 1.212683439E+00 2.678268909E+00
 1.277837634E+00 1.206048012E+00 2.674705505E+00
 1.280045390E+00 1.209944963E+00 2.669305325E+00
 1.282590032E+00 1.213522434E+00 2.664347172E+00
 1.285828233E+00 1.218493223E+00 2.660114288E+00
 1.289625049E+00 1.223244905E+00 2.654645920E+00
 1.293567538E+00 1.227634430E+00 2.649154663E+00
 1.297589898E+00 1.231873751E+00 2.643841267E+00
 1.301670432E+00 1.236110687E+00 2.638694286E+00
 1.305786729E+00 1.240354300E+00 2.633600235E+00
 1.309920907E+00 1.244620085E+00 2.628505707E+00
 1.314026237E+00 1.248900652E+00 2.623377323E+00
 1.318032146E+00 1.253209352E+00 2.618198872E+00
 1.321912646E+00 1.257521868E+00 2.612949371E+00
 1.325593114E+00 1.261854172E+00 2.607651711E+00
 1.329016328E+00 1.266189814E+00 2.602291584E+00
 1.332147717E+00 1.270558119E+00 2.596895218E+00
 1.334952235E+00 1.275098562E+00 2.591479301E+00
 1.337338567E+00 1.279999256E+00 2.586234570E+00
 1.339197278E+00 1.285341978E+00 2.581296921E+00
 1.340548873E+00 1.291018009E+00 2.576675892E+00
 1.341426015E+00 1.296916246E+00 2.572320938E+00
 1.341854215E+00 1.303015709E+00 2.568196774E+00
 1.341891885E+00 1.309350491E+00 2.564164162E+00
 1.341568828E+00 1.315867662E+00 2.560149193E+00
 1.340883851E+00 1.322549582E+00 2.556192398E+00
 1.339869618E+00 1.329277277E+00 2.552275658E+00
 1.338542104E+00 1.336045742E+00 2.548450470E+00
 1.336974263E+00 1.342720747E+00 2.544591904E+00
 1.335257173E+00 1.349040747E+00 2.540735245E+00
 1.333535314E+00 1.354589939E+00 2.537194252E+00
 1.331514239E+00 1.360805511E+00 2.535311699E+00
 1.329173684E+00 1.367713451E+00 2.533102512E+00
 1.326680064E+00 1.374795198E+00 2.530706882E+00
 1.324105144E+00 1.381816626E+00 2.528268814E+00
 1.321467757E+00 1.388862371E+00 2.525954723E+00
 1.318807244E+00 1.395946026E+00 2.523766518E+00
 1.316161752E+00 1.403026581E+00 2.521780968E+00
 1.313501954E+00 1.410109520E+00 2.519844532E+00
 1.310812354E+00 1.417217731E+00 2.518004417E+00
 1.308102012E+00 1.424361944E+00 2.516260624E+00
 1.305317760E+00 1.431549072E+00 2.514638424E+00
 1.302457452E+00 1.438800573E+00 2.513145447E+00
 1.299461961E+00 1.446091413E+00 2.511790276E+00
 1.296345592E+00 1.453428030E+00 2.510642529E+00
 1.292977452E+00 1.460791349E+00 2.509593010E+00
 1.289310098E+00 1.468156576E+00 2.508638859E+00
 1.285217643E+00 1.475204706E+00 2.507560730E+00
 1.281205535E+00 1.479407549E+00 2.505663395E+00
 1.280352235E+00 1.485133410E+00 2.507493973E+00
 1.277393460E+00 1.492643356E+00 2.508409500E+00
 1.274020791E+00 1.500102997E+00 2.509132862E+00
 1.270609498E+00 1.507410526E+00 2.509884357E+00
 1.267260671E+00 1.514610291E+00 2.510738850E+00
 1.263998151E+00 1.521756649E+00 2.511715412E+00
 1.260856748E+00 1.528884172E+00 2.512833595E+00
 1.257804036E+00 1.536001921E+00 2.514121056E+00
 1.254830003E+00 1.543099642E+00 2.515587330E+00
 1.251896501E+00 1.550145388E+00 2.517241955E+00
 1.248991847E+00 1.557047129E+00 2.519090176E+00
 1.246163249E+00 1.563709497E+00 2.521142483E+00
 1.243564248E+00 1.570077896E+00 2.523435593E+00
 1.241452575E+00 1.576360464E+00 2.526298523E+00
 1.239470363E+00 1.582765818E+00 2.529566765E+00
 1.237548947E+00 1.589239836E+00 2.533136368E+00
 1.235749841E+00 1.595704079E+00 2.536958694E+00
 1.234107852E+00 1.602119684E+00 2.541028500E+00
 1.232644677E+00 1.608468056E+00 2.545329571E+00
 1.231330752E+00 1.614728451E+00 2.549890518E+00
 1.230124593E+00 1.620851994E+00 2.554651260E+00
 1.228906035E+00 1.626783609E+00 2.559544563E+00
 1.227627873E+00 1.632405043E+00 2.564394951E+00
 1.226360917E+00 1.637361526E+00 2.568840027E+00
 1.226591468E+00 1.641672134E+00 2.574089527E+00
 1.226755261E+00 1.646361351E+00 2.580010891E+00
 1.226789594E+00 1.651141167E+00 2.586206913E+00
 1.226818919E+00 1.655879259E+00 2.592515945E+00
 1.226914048E+00 1.660515308E+00 2.598867416E+00
 1.227085948E+00 1.665050268E+00 2.605263233E+00
 1.227357507E+00 1.669474363E+00 2.611674786E+00
 1.227717996E+00 1.673768520E+00 2.618133068E+00
 1.228168130E+00 1.677922964E+00 2.624629021E+00
 1.228689313E+00 1.681888342E+00 2.631214619E+00
 1.229280353E+00 1.685666084E+00 2.637899399E+00
 1.229903817E+00 1.689194918E+00 2.644715309E+00
 1.230506539E+00 1.692492723E+00 2.651686192E+00
 1.231070399E+00 1.695554972E+00 2.658781052E+00
 1.231547713E+00 1.698385477E+00 2.665965557E+00
 1.231967807E+00 1.701005936E+00 2.673230648E+00
 1.232359529E+00 1.703418970E+00 2.680578232E+00
 1.232692599E+00 1.705660105E+00 2.687983036E+00
 1.233003259E+00 1.707772017E+00 2.695435524E+00
 1.233312249E+00 1.709765911E+00 2.702916145E+00
 1.233629823E+00 1.711659670E+00 2.710404396E+00
 1.233972907E+00 1.713467836E+00 2.717921257E+00
 1.234334826E+00 1.715167999E+00 2.725457191E+00
 1.234746337E+00 1.716734409E+00 2.733026505E+00
 1.235199571E+00 1.718136311E+00 2.740641117E+00
 1.235646605E+00 1.719350100E+00 2.748299122E+00
 1.236084342E+00 1.720340729E+00 2.755951405E+00
 1.236428142E+00 1.721244097E+00 2.763742924E+00
 1.236655354E+00 1.721995831E+00 2.771525383E+00
 1.236758828E+00 1.722611427E+00 2.779246330E+00
 1.236698985E+00 1.723068953E+00 2.786793709E+00
 1.236504912E+00 1.723251343E+00 2.794057846E+00
 1.236214519E+00 1.722748280E+00 2.801281452E+00
 1.235707402E+00 1.721919775E+00 2.808701038E+00
 1.234943271E+00 1.720864058E+00 2.816195488E+00
 1.233870625E+00 1.719642401E+00 2.823706150E+00
 1.232497096E+00 1.718266726E+00 2.831121922E+00
 1.230822444E+00 1.716681957E+00 2.838376045E+00
 1.228862166E+00 1.714801550E+00 2.845375538E+00
 1.226614833E+00 1.712534904E+00 2.852117062E+00
 1.224130511E+00 1.709608078E+00 2.858522892E+00
 1.221445203E+00 1.706047058E+00 2.864503384E+00
 1.218549848E+00 1.701969624E+00 2.870150566E+00
 1.215394855E+00 1.697704792E+00 2.875608921E+00
 1.211925149E+00 1.693398952E+00 2.881012917E+00
 1.208221078E+00 1.689077139E+00 2.886338234E+00
 1.204326987E+00 1.684729815E+00 2.891549110E+00
 1.200317740E+00 1.680387259E+00 2.896679401E+00
 1.196222425E+00 1.676042557E+00 2.901751995E+00
 1.192109704E+00 1.671703339E+00 2.906783104E+00
 1.187985778E+00 1.667374134E+00 2.911822796E+00
 1.183894515E+00 1.663072348E+00 2.916923046E+00
 1.179852128E+00 1.658831358E+00 2.922103882E+00
 1.175941586E+00 1.654738188E+00 2.927355766E+00
 1.172291160E+00 1.650933981E+00 2.932548523E+00
 1.169168830E+00 1.646872044E+00 2.937602997E+00
 1.166313052E+00 1.642789602E+00 2.942882061E+00
 1.171015382E+00 1.638126850E+00 2.939638138E+00
 1.175732255E+00 1.633701086E+00 2.936450005E+00
 1.180705667E+00 1.629577637E+00 2.932849884E+00
 1.185907483E+00 1.625197172E+00 2.929195404E+00
 1.191150784E+00 1.620764017E+00 2.925589085E+00
 1.196452737E+00 1.616392374E+00 2.921933174E+00
 1.201841712E+00 1.611965895E+00 2.918257236E+00
 1.207282901E+00 1.607486248E+00 2.914619923E+00
 1.212731719E+00 1.603010178E+00 2.911014080E+00
 1.218217731E+00 1.598548889E+00 2.907429695E+00
 1.223709464E+00 1.594100952E+00 2.903884888E+00
 1.229236484E+00 1.589679003E+00 2.900371552E+00
 1.234780192E+00 1.585270882E+00 2.896889210E+00
 1.240367770E+00 1.580908775E+00 2.893437386E+00
 1.245999217E+00 1.576601982E+00 2.890005112E+00
 1.251684308E+00 1.572352409E+00 2.886593819E+00
 1.257412314E+00 1.568140268E+00 2.883233547E+00
 1.263211846E+00 1.564024687E+00 2.879872322E+00
 1.269082427E+00 1.559978962E+00 2.876553059E+00
 1.275037169E+00 1.555992126E+00 2.873256207E+00
 1.281069160E+00 1.552097321E+00 2.870019913E+00
 1.287171960E+00 1.548290491E+00 2.866803169E+00
 1.293355346E+00 1.544554949E+00 2.863638401E+00
 1.299609542E+00 1.540879965E+00 2.860526085E+00
 1.305909991E+00 1.537248850E+00 2.857414246E+00
 1.312212110E+00 1.533607244E+00 2.854293346E+00
 1.318479657E+00 1.529920816E+00 2.851152420E+00
 1.324656367E+00 1.526144505E+00 2.847990036E+00
 1.330714822E+00 1.522283077E+00 2.844763756E+00
 1.336619973E+00 1.518272877E+00 2.841474533E+00
 1.342367768E+00 1.514090061E+00 2.838083267E+00
 1.347932458E+00 1.509692192E+00 2.834581852E+00
 1.353243947E+00 1.505053997E+00 2.830985546E+00
 1.358237863E+00 1.500192881E+00 2.827327728E+00
 1.362952352E+00 1.495012760E+00 2.823498249E+00
 1.367246270E+00 1.489501953E+00 2.819626331E+00
 1.371084094E+00 1.483700037E+00 2.815616131E+00
 1.374282241E+00 1.477687359E+00 2.811537266E+00
 1.376872659E+00 1.471224546E+00 2.807379246E+00
 1.378640056E+00 1.464592934E+00 2.803244114E+00
 1.379613757E+00 1.457713604E+00 2.798989773E+00
 1.379819751E+00 1.450813770E+00 2.794793606E+00
 1.379368186E+00 1.444114447E+00 2.790658951E+00
 1.378329873E+00 1.437186956E+00 2.786692619E+00
 1.376794219E+00 1.430353880E+00 2.782929897E+00
 1.374808431E+00 1.423556566E+00 2.779217243E+00
 1.372454047E+00 1.416856289E+00 2.775598049E+00
 1.369768739E+00 1.410257578E+00 2.772094727E+00