TITLE     = "| |"
VARIABLES = "X"
"Y"
"Z"
ZONE T="ZONE 001"
 STRANDID=0, SOLUTIONTIME=0
 Nodes=5704, Elements=5702, ZONETYPE=FEQuadrilateral
 DATAPACKING=POINT
 DT=(SINGLE SINGLE SINGLE )
 1.626318336E+00 1.379888058E+00 3.067702293E+00
 1.623573184E+00 1.386868954E+00 3.073783398E+00
 1.171749234E+00 1.650102377E+00 2.967186451E+00
 1.630002856E+00 1.384936810E+00 3.062948227E+00
 1.633777976E+00 1.389660358E+00 3.057922363E+00
 1.637544513E+00 1.394188166E+00 3.052718639E+00
 1.641349912E+00 1.398442984E+00 3.047325611E+00
 1.645161986E+00 1.402526855E+00 3.041794777E+00
 1.648945451E+00 1.406542301E+00 3.036195278E+00
 1.652680278E+00 1.410552025E+00 3.030572414E+00
 1.656396985E+00 1.414493799E+00 3.024872780E+00
 1.660100818E+00 1.418391228E+00 3.019134521E+00
 1.663817286E+00 1.422398329E+00 3.013500214E+00
 1.667552114E+00 1.426417351E+00 3.007866859E+00
 1.671300054E+00 1.430609941E+00 3.002383232E+00
 1.675025582E+00 1.434969187E+00 2.996996403E+00
 1.678743243E+00 1.439501047E+00 2.991768360E+00
 1.682663321E+00 1.444084644E+00 2.986724377E+00
 1.686713099E+00 1.448863983E+00 2.981988907E+00
 1.690268874E+00 1.454233170E+00 2.977483273E+00
 1.692817569E+00 1.460243225E+00 2.973129749E+00
 1.694629312E+00 1.466714621E+00 2.969044209E+00
 1.696095109E+00 1.473466635E+00 2.965322971E+00
 1.697493434E+00 1.480432272E+00 2.961963177E+00
 1.698776603E+00 1.487586975E+00 2.958962917E+00
 1.699828029E+00 1.494898558E+00 2.956294060E+00
 1.700608373E+00 1.502364159E+00 2.953964233E+00
 1.701132655E+00 1.509943008E+00 2.951947212E+00
 1.701418996E+00 1.517591953E+00 2.950187206E+00
 1.701504588E+00 1.525316715E+00 2.948716164E+00
 1.701376319E+00 1.533082962E+00 2.947496891E+00
 1.701039433E+00 1.540858030E+00 2.946490288E+00
 1.700464368E+00 1.548656940E+00 2.945663452E+00
 1.699675202E+00 1.556451082E+00 2.945010185E+00
 1.698669314E+00 1.564224005E+00 2.944450855E+00
 1.697448373E+00 1.571974277E+00 2.943965912E+00
 1.696043611E+00 1.579694271E+00 2.943548203E+00
 1.694471002E+00 1.587379217E+00 2.943128586E+00
 1.692763448E+00 1.595039368E+00 2.942659378E+00
 1.690919042E+00 1.602665901E+00 2.942171097E+00
 1.688939691E+00 1.610249519E+00 2.941665173E+00
 1.686822772E+00 1.617800713E+00 2.941149235E+00
 1.684585452E+00 1.625323057E+00 2.940655231E+00
 1.682219625E+00 1.632796764E+00 2.940195084E+00
 1.679712892E+00 1.640240908E+00 2.939764500E+00
 1.677067399E+00 1.647626162E+00 2.939377785E+00
 1.674220681E+00 1.654948950E+00 2.939058304E+00
 1.671133399E+00 1.662169695E+00 2.938847065E+00
 1.667837024E+00 1.669297695E+00 2.938714981E+00
 1.664334178E+00 1.676331043E+00 2.938622475E+00
 1.660616994E+00 1.683258295E+00 2.938570499E+00
 1.656698585E+00 1.690077543E+00 2.938508511E+00
 1.652628779E+00 1.696801901E+00 2.938430786E+00
 1.648441911E+00 1.703449488E+00 2.938268661E+00
 1.644128203E+00 1.710009336E+00 2.938021183E+00
 1.639689088E+00 1.716480732E+00 2.937678814E+00
 1.635135770E+00 1.722881794E+00 2.937201500E+00
 1.630460143E+00 1.729163647E+00 2.936621189E+00
 1.625610948E+00 1.735314369E+00 2.935965538E+00
 1.620552897E+00 1.741289377E+00 2.935224533E+00
 1.615285039E+00 1.747062206E+00 2.934439182E+00
 1.609768987E+00 1.752599716E+00 2.933619976E+00
 1.603997827E+00 1.757862568E+00 2.932778835E+00
 1.597993493E+00 1.762859344E+00 2.931875706E+00
 1.591790795E+00 1.767570496E+00 2.930886269E+00
 1.585400939E+00 1.772022963E+00 2.929748535E+00
 1.578877568E+00 1.776190758E+00 2.928458214E+00
 1.572220922E+00 1.780101299E+00 2.926983833E+00
 1.565462232E+00 1.783746243E+00 2.925308228E+00
 1.558601260E+00 1.787107944E+00 2.923473358E+00
 1.551625609E+00 1.790159941E+00 2.921529293E+00
 1.544532895E+00 1.792894840E+00 2.919517994E+00
 1.537343383E+00 1.795305014E+00 2.917450428E+00
 1.530053020E+00 1.797384262E+00 2.915377617E+00
 1.522671580E+00 1.799124956E+00 2.913321018E+00
 1.515226722E+00 1.800567865E+00 2.911260128E+00
 1.507747054E+00 1.801763058E+00 2.909163475E+00
 1.500251651E+00 1.802731752E+00 2.907010555E+00
 1.492749333E+00 1.803494215E+00 2.904801369E+00
 1.485248446E+00 1.804089069E+00 2.902513504E+00
 1.477766395E+00 1.804529667E+00 2.900157452E+00
 1.470293641E+00 1.804805279E+00 2.897743225E+00
 1.462828994E+00 1.804917812E+00 2.895291328E+00
 1.455360293E+00 1.804839849E+00 2.892851830E+00
 1.447876096E+00 1.804562569E+00 2.890455723E+00
 1.440386891E+00 1.804068089E+00 2.888124466E+00
 1.432890296E+00 1.803358555E+00 2.885878563E+00
 1.425382257E+00 1.802436590E+00 2.883766651E+00
 1.417854667E+00 1.801291704E+00 2.881789684E+00
 1.410344005E+00 1.799975872E+00 2.879917145E+00
 1.402830243E+00 1.798514366E+00 2.878123760E+00
 1.395322919E+00 1.796928167E+00 2.876401424E+00
 1.387841582E+00 1.795218229E+00 2.874739647E+00
 1.380367637E+00 1.793382406E+00 2.873137474E+00
 1.372922778E+00 1.791411400E+00 2.871577740E+00
 1.365508437E+00 1.789313078E+00 2.870029449E+00
 1.358126044E+00 1.787077665E+00 2.868493080E+00
 1.350796103E+00 1.784696341E+00 2.866971493E+00
 1.343505025E+00 1.782172203E+00 2.865503788E+00
 1.336253285E+00 1.779467106E+00 2.864132404E+00
 1.329035640E+00 1.776595116E+00 2.862905979E+00
 1.321873069E+00 1.773547649E+00 2.861827374E+00
 1.314748645E+00 1.770339489E+00 2.860964298E+00
 1.307668567E+00 1.766983271E+00 2.860357285E+00
 1.300641179E+00 1.763490438E+00 2.860005379E+00
 1.293650508E+00 1.759883642E+00 2.859966278E+00
 1.286723971E+00 1.756187201E+00 2.860250950E+00
 1.279879928E+00 1.752383947E+00 2.860891342E+00
 1.273136973E+00 1.748477459E+00 2.861910343E+00
 1.266530871E+00 1.744475126E+00 2.863359451E+00
 1.260058999E+00 1.740424871E+00 2.865215302E+00
 1.253681540E+00 1.736424685E+00 2.867478371E+00
 1.247393489E+00 1.732542992E+00 2.870142460E+00
 1.241376519E+00 1.728591681E+00 2.873297691E+00
 1.235980868E+00 1.724284887E+00 2.877031803E+00
 1.231534362E+00 1.719459772E+00 2.881354332E+00
 1.227724671E+00 1.714534521E+00 2.886150360E+00
 1.223937631E+00 1.709894657E+00 2.891229630E+00
 1.220023990E+00 1.705462933E+00 2.896404743E+00
 1.216212869E+00 1.701175213E+00 2.901768684E+00
 1.212518096E+00 1.696938038E+00 2.907269955E+00
 1.208921552E+00 1.692830801E+00 2.912911415E+00
 1.205321431E+00 1.688735962E+00 2.918581486E+00
 1.201811194E+00 1.684758902E+00 2.924381733E+00
 1.198267341E+00 1.680745840E+00 2.930141449E+00
 1.194654346E+00 1.676615477E+00 2.935762882E+00
 1.191101432E+00 1.672462463E+00 2.941411018E+00
 1.187501550E+00 1.668237686E+00 2.946969509E+00
 1.183821082E+00 1.663905621E+00 2.952398300E+00
 1.179951072E+00 1.659436941E+00 2.957569122E+00
 1.175957084E+00 1.654841423E+00 2.962537766E+00
 1.176939130E+00 1.652405500E+00 2.975002766E+00
 1.627710223E+00 1.391750336E+00 3.069490910E+00
 1.631731391E+00 1.396350861E+00 3.064815998E+00
 1.635734200E+00 1.400708437E+00 3.059885502E+00
 1.639718652E+00 1.404868603E+00 3.054765701E+00
 1.643688798E+00 1.408865929E+00 3.049505711E+00
 1.647618413E+00 1.412739992E+00 3.044129372E+00
 1.651459575E+00 1.416559219E+00 3.038660049E+00
 1.655286431E+00 1.420353889E+00 3.033150196E+00
 1.659104466E+00 1.424136877E+00 3.027630806E+00
 1.662941813E+00 1.427922726E+00 3.022123337E+00
 1.666761518E+00 1.431759834E+00 3.016650200E+00
 1.670589328E+00 1.435682535E+00 3.011231899E+00
 1.674405456E+00 1.439753532E+00 3.005923748E+00
 1.678204417E+00 1.444005013E+00 3.000751972E+00
 1.682122588E+00 1.448424101E+00 2.995800018E+00
 1.686310172E+00 1.452931166E+00 2.991166115E+00
 1.690208077E+00 1.457828522E+00 2.986691475E+00
 1.693109393E+00 1.463497162E+00 2.982351303E+00
 1.695187688E+00 1.469680071E+00 2.978278160E+00
 1.696785808E+00 1.476220131E+00 2.974533081E+00
 1.698160529E+00 1.483011961E+00 2.971163273E+00
 1.699337125E+00 1.490006447E+00 2.968164921E+00
 1.700288653E+00 1.497180462E+00 2.965517998E+00
 1.700970531E+00 1.504488468E+00 2.963210583E+00
 1.701366305E+00 1.511926413E+00 2.961203098E+00
 1.701469779E+00 1.519433022E+00 2.959497452E+00
 1.701295257E+00 1.526998043E+00 2.958066940E+00
 1.700867534E+00 1.534599781E+00 2.956873894E+00
 1.700203538E+00 1.542206049E+00 2.955862045E+00
 1.699274182E+00 1.549803972E+00 2.955039978E+00
 1.698093772E+00 1.557390690E+00 2.954348087E+00
 1.696669698E+00 1.564933062E+00 2.953740120E+00
 1.695004582E+00 1.572437525E+00 2.953164577E+00
 1.693095326E+00 1.579869509E+00 2.952574253E+00
 1.690999627E+00 1.587255239E+00 2.951981544E+00
 1.688807607E+00 1.594619989E+00 2.951351643E+00
 1.686568379E+00 1.601969004E+00 2.950699329E+00
 1.684255719E+00 1.609278202E+00 2.950003147E+00
 1.681847692E+00 1.616565466E+00 2.949260235E+00
 1.679354787E+00 1.623804092E+00 2.948503494E+00
 1.676771522E+00 1.631026268E+00 2.947760582E+00
 1.674103856E+00 1.638226986E+00 2.947093010E+00
 1.671314597E+00 1.645372868E+00 2.946498871E+00
 1.668350101E+00 1.652480841E+00 2.946003914E+00
 1.665203691E+00 1.659492493E+00 2.945631027E+00
 1.661830544E+00 1.666408062E+00 2.945437431E+00
 1.658151269E+00 1.673192978E+00 2.945317745E+00
 1.654295325E+00 1.679848909E+00 2.945031643E+00
 1.650425792E+00 1.686506987E+00 2.944784164E+00
 1.646489739E+00 1.693128824E+00 2.944664478E+00
 1.642387986E+00 1.699639797E+00 2.944468021E+00
 1.638165116E+00 1.706077814E+00 2.944237232E+00
 1.633817077E+00 1.712426662E+00 2.943901062E+00
 1.629343390E+00 1.718686581E+00 2.943470001E+00
 1.624739289E+00 1.724834919E+00 2.942905426E+00
 1.620001197E+00 1.730874062E+00 2.942246437E+00
 1.615081429E+00 1.736751556E+00 2.941523552E+00
 1.609930634E+00 1.742435694E+00 2.940764904E+00
 1.604515433E+00 1.747851610E+00 2.939952374E+00
 1.598828912E+00 1.752979040E+00 2.939087391E+00
 1.592913032E+00 1.757818699E+00 2.938142776E+00
 1.586796641E+00 1.762392521E+00 2.937099457E+00
 1.580532193E+00 1.766703129E+00 2.935942173E+00
 1.574120164E+00 1.770768642E+00 2.934638023E+00
 1.567600846E+00 1.774600267E+00 2.933170319E+00
 1.560982823E+00 1.778201580E+00 2.931560516E+00
 1.554256082E+00 1.781542778E+00 2.929828167E+00
 1.547431111E+00 1.784607172E+00 2.928007126E+00
 1.540480018E+00 1.787343502E+00 2.926117897E+00
 1.533432603E+00 1.789754152E+00 2.924162865E+00
 1.526279092E+00 1.791820288E+00 2.922162533E+00
 1.519058108E+00 1.793546200E+00 2.920130253E+00
 1.511765599E+00 1.794963121E+00 2.918084145E+00
 1.504430175E+00 1.796092987E+00 2.916024208E+00
 1.497077823E+00 1.796996593E+00 2.913918018E+00
 1.489716411E+00 1.797724009E+00 2.911753178E+00
 1.482363343E+00 1.798296690E+00 2.909529209E+00
 1.475015521E+00 1.798744440E+00 2.907254219E+00
 1.467671275E+00 1.799069643E+00 2.904948235E+00
 1.460341811E+00 1.799271822E+00 2.902591705E+00
 1.453022838E+00 1.799289465E+00 2.900188446E+00
 1.445711017E+00 1.799116850E+00 2.897789001E+00
 1.438341022E+00 1.798762321E+00 2.895568848E+00
 1.430936217E+00 1.798215866E+00 2.893509865E+00
 1.423506618E+00 1.797486544E+00 2.891592026E+00
 1.416072488E+00 1.796595812E+00 2.889796734E+00
 1.408619761E+00 1.795572042E+00 2.888129711E+00
 1.401170611E+00 1.794435501E+00 2.886560917E+00
 1.393715024E+00 1.793202162E+00 2.885048866E+00
 1.386263728E+00 1.791873455E+00 2.883594513E+00
 1.378828406E+00 1.790475845E+00 2.882155418E+00
 1.371398807E+00 1.788999319E+00 2.880723476E+00
 1.363998771E+00 1.787452221E+00 2.879258156E+00
 1.356630445E+00 1.785786390E+00 2.877783775E+00
 1.349282622E+00 1.783992290E+00 2.876320362E+00
 1.341968656E+00 1.782022238E+00 2.874891758E+00
 1.334707618E+00 1.779860258E+00 2.873521805E+00
 1.327500939E+00 1.777467966E+00 2.872242451E+00
 1.320332408E+00 1.774850130E+00 2.871123314E+00
 1.313215852E+00 1.772050619E+00 2.870202541E+00
 1.306147933E+00 1.769080877E+00 2.869498730E+00
 1.299126983E+00 1.765923977E+00 2.869063377E+00
 1.292177320E+00 1.762615442E+00 2.868926048E+00
 1.285304666E+00 1.759159088E+00 2.869137764E+00
 1.278517604E+00 1.755548000E+00 2.869729519E+00
 1.271861196E+00 1.751809359E+00 2.870733738E+00
 1.265363336E+00 1.747946739E+00 2.872182369E+00
 1.258978009E+00 1.744045258E+00 2.874045372E+00
 1.252698302E+00 1.740203381E+00 2.876295567E+00
 1.246603131E+00 1.736362934E+00 2.879022598E+00
 1.240956426E+00 1.732303858E+00 2.882326603E+00
 1.236064553E+00 1.727833271E+00 2.886255264E+00
 1.232195735E+00 1.722939730E+00 2.890742302E+00
 1.228738427E+00 1.718004704E+00 2.895547867E+00
 1.225112557E+00 1.713423729E+00 2.900566101E+00
 1.221503615E+00 1.709040403E+00 2.905773163E+00
 1.218012452E+00 1.704771042E+00 2.911152840E+00
 1.214614272E+00 1.700589657E+00 2.916654587E+00
 1.211285472E+00 1.696460485E+00 2.922238827E+00
 1.207982183E+00 1.692356586E+00 2.927864552E+00
 1.204676747E+00 1.688263416E+00 2.933498859E+00
 1.201362967E+00 1.684168339E+00 2.939112663E+00
 1.198035121E+00 1.680029392E+00 2.944698334E+00
 1.194724202E+00 1.675774574E+00 2.950202465E+00
 1.191371322E+00 1.671416759E+00 2.955589771E+00
 1.187920928E+00 1.666928768E+00 2.960827827E+00
 1.184368253E+00 1.662304640E+00 2.965854645E+00
 1.180680394E+00 1.657508135E+00 2.970621586E+00
 1.618145585E+00 1.389397383E+00 3.068836689E+00
 1.612800956E+00 1.391967535E+00 3.063814163E+00
 1.607538819E+00 1.394560575E+00 3.058736324E+00
 1.602309585E+00 1.397162676E+00 3.053610325E+00
 1.597113729E+00 1.399755239E+00 3.048457146E+00
 1.591900706E+00 1.402316332E+00 3.043305397E+00
 1.586641431E+00 1.404824257E+00 3.038163662E+00
 1.581372857E+00 1.407311678E+00 3.033031940E+00
 1.576109052E+00 1.409767628E+00 3.027873039E+00
 1.570847392E+00 1.412203550E+00 3.022716045E+00
 1.565599322E+00 1.414628267E+00 3.017530441E+00
 1.560382724E+00 1.417053699E+00 3.012317181E+00
 1.555207849E+00 1.419499636E+00 3.007065296E+00
 1.550074935E+00 1.421956539E+00 3.001776695E+00
 1.544994712E+00 1.424424648E+00 2.996450901E+00
 1.539939761E+00 1.426871538E+00 2.991078854E+00
 1.534942746E+00 1.429279327E+00 2.985653877E+00
 1.529975057E+00 1.431643963E+00 2.980164051E+00
 1.525068641E+00 1.433947802E+00 2.974603176E+00
 1.520223498E+00 1.436191082E+00 2.968970776E+00
 1.515419841E+00 1.438362598E+00 2.963276863E+00
 1.510671973E+00 1.440450668E+00 2.957482815E+00
 1.505999446E+00 1.442429304E+00 2.951622009E+00
 1.501373410E+00 1.444313526E+00 2.945661068E+00
 1.496818662E+00 1.446119308E+00 2.939651489E+00
 1.492313027E+00 1.447893620E+00 2.933567524E+00
 1.487850308E+00 1.449659586E+00 2.927457809E+00
 1.483389974E+00 1.451487780E+00 2.921373844E+00
 1.478894830E+00 1.453428507E+00 2.915349960E+00
 1.474328876E+00 1.455511570E+00 2.909420490E+00
 1.469658494E+00 1.457737446E+00 2.903632641E+00
 1.464850307E+00 1.460116148E+00 2.898014545E+00
 1.459899783E+00 1.462660074E+00 2.892614365E+00
 1.454798341E+00 1.465440750E+00 2.887445450E+00
 1.449552417E+00 1.468380451E+00 2.882536411E+00
 1.444106460E+00 1.471469164E+00 2.877951145E+00
 1.438419461E+00 1.474741459E+00 2.873796463E+00
 1.432482362E+00 1.478195906E+00 2.870191097E+00
 1.426283717E+00 1.481842041E+00 2.867264748E+00
 1.419881701E+00 1.485658407E+00 2.865073681E+00
 1.413343549E+00 1.489580393E+00 2.863618374E+00
 1.406720281E+00 1.493564367E+00 2.862926483E+00
 1.400084853E+00 1.497586250E+00 2.862995148E+00
 1.393484712E+00 1.501597166E+00 2.863801956E+00
 1.386977792E+00 1.505576134E+00 2.865262508E+00
 1.380585074E+00 1.509505749E+00 2.867259026E+00
 1.374298453E+00 1.513411045E+00 2.869608402E+00
 1.368128419E+00 1.517292261E+00 2.872301102E+00
 1.362142920E+00 1.521222115E+00 2.875287533E+00
 1.356305480E+00 1.525166273E+00 2.878557205E+00
 1.350591540E+00 1.529098749E+00 2.882058620E+00
 1.345014930E+00 1.533036470E+00 2.885742664E+00
 1.339544654E+00 1.537014246E+00 2.889563560E+00
 1.334156394E+00 1.541015625E+00 2.893469810E+00
 1.328831553E+00 1.545065403E+00 2.897408485E+00
 1.323487401E+00 1.549130917E+00 2.901313782E+00
 1.318107724E+00 1.553226471E+00 2.905133724E+00
 1.312654614E+00 1.557319164E+00 2.908857822E+00
 1.307129741E+00 1.561416149E+00 2.912463665E+00
 1.301524282E+00 1.565498114E+00 2.915954590E+00
 1.295828700E+00 1.569553852E+00 2.919338226E+00
 1.290089250E+00 1.573618412E+00 2.922627449E+00
 1.284286618E+00 1.577690601E+00 2.925820351E+00
 1.278450131E+00 1.581753254E+00 2.928930283E+00
 1.272571445E+00 1.585815191E+00 2.931946278E+00
 1.266655803E+00 1.589889288E+00 2.934898376E+00
 1.260721087E+00 1.593988419E+00 2.937806606E+00
 1.254790187E+00 1.598103285E+00 2.940654278E+00
 1.248858333E+00 1.602264404E+00 2.943447113E+00
 1.242936969E+00 1.606463432E+00 2.946198940E+00
 1.237015367E+00 1.610699654E+00 2.948907375E+00
 1.231084943E+00 1.614952326E+00 2.951584339E+00
 1.225147367E+00 1.619182825E+00 2.954241753E+00
 1.219174027E+00 1.623369932E+00 2.956898689E+00
 1.213173032E+00 1.627515554E+00 2.959567070E+00
 1.207136989E+00 1.631607771E+00 2.962236404E+00
 1.201100230E+00 1.635699987E+00 2.964904785E+00
 1.195047259E+00 1.639796972E+00 2.967522144E+00
 1.188994527E+00 1.643939972E+00 2.970085144E+00
 1.182962298E+00 1.648130178E+00 2.972587109E+00
 1.620952725E+00 1.382558346E+00 3.062570095E+00
 1.615600228E+00 1.385217905E+00 3.057409763E+00
 1.610258698E+00 1.387868404E+00 3.052250862E+00
 1.604919553E+00 1.390507221E+00 3.047072411E+00
 1.599577308E+00 1.393177032E+00 3.041902065E+00
 1.594260573E+00 1.395806551E+00 3.036706448E+00
 1.588981986E+00 1.398404121E+00 3.031445980E+00
 1.583729148E+00 1.400970697E+00 3.026149750E+00
 1.578487515E+00 1.403537035E+00 3.020833492E+00
 1.573245406E+00 1.406113386E+00 3.015517235E+00
 1.568009973E+00 1.408711672E+00 3.010219574E+00
 1.562785029E+00 1.411310434E+00 3.004913330E+00
 1.557573676E+00 1.413897753E+00 2.999578476E+00
 1.552410245E+00 1.416444778E+00 2.994190216E+00
 1.547309995E+00 1.418939114E+00 2.988700390E+00
 1.542256713E+00 1.421393871E+00 2.983166695E+00
 1.537203431E+00 1.423857927E+00 2.977622509E+00
 1.532196641E+00 1.426291943E+00 2.972033978E+00
 1.527248740E+00 1.428686142E+00 2.966382504E+00
 1.522366405E+00 1.431006908E+00 2.960621357E+00
 1.517591596E+00 1.433228016E+00 2.954755306E+00
 1.512880683E+00 1.435377121E+00 2.948799133E+00
 1.508226037E+00 1.437506676E+00 2.942788124E+00
 1.503718257E+00 1.439485788E+00 2.936619759E+00
 1.499256968E+00 1.441434860E+00 2.930406570E+00
 1.494766831E+00 1.443436146E+00 2.924247742E+00
 1.490277171E+00 1.445446014E+00 2.918067932E+00
 1.485774398E+00 1.447466612E+00 2.911916733E+00
 1.481202722E+00 1.449536085E+00 2.905816555E+00
 1.476557136E+00 1.451667070E+00 2.899816513E+00
 1.471747994E+00 1.453917503E+00 2.893976212E+00
 1.466692805E+00 1.456392050E+00 2.888440609E+00
 1.461503625E+00 1.458970070E+00 2.883088589E+00
 1.456103683E+00 1.461724520E+00 2.878037930E+00
 1.450519681E+00 1.464615583E+00 2.873264313E+00
 1.444718719E+00 1.467669487E+00 2.868884087E+00
 1.438694835E+00 1.470910549E+00 2.864954472E+00
 1.432459950E+00 1.474300623E+00 2.861489296E+00
 1.426046014E+00 1.477850676E+00 2.858602047E+00
 1.419464707E+00 1.481633186E+00 2.856429100E+00
 1.412804246E+00 1.485583305E+00 2.854951382E+00
 1.406116605E+00 1.489686251E+00 2.854175091E+00
 1.399456382E+00 1.493922710E+00 2.854186535E+00
 1.392839789E+00 1.498168707E+00 2.854794502E+00
 1.386282802E+00 1.502411127E+00 2.855940819E+00
 1.379836917E+00 1.506634474E+00 2.857630730E+00
 1.373510003E+00 1.510831594E+00 2.859765053E+00
 1.367280602E+00 1.514984131E+00 2.862252712E+00
 1.361196399E+00 1.519107580E+00 2.865116596E+00
 1.355197072E+00 1.523205519E+00 2.868210793E+00
 1.349393249E+00 1.527260065E+00 2.871696472E+00
 1.343706250E+00 1.531271935E+00 2.875416279E+00
 1.338091731E+00 1.535259485E+00 2.879264355E+00
 1.332513213E+00 1.539235830E+00 2.883186817E+00
 1.326953530E+00 1.543195963E+00 2.887142181E+00
 1.321383834E+00 1.547174215E+00 2.891075134E+00
 1.315870404E+00 1.551141739E+00 2.895073891E+00
 1.310319304E+00 1.555141211E+00 2.899006844E+00
 1.304640412E+00 1.559165001E+00 2.902737141E+00
 1.298927426E+00 1.563198328E+00 2.906372547E+00
 1.293149114E+00 1.567258596E+00 2.909910202E+00
 1.287300944E+00 1.571322680E+00 2.913311005E+00
 1.281380773E+00 1.575400352E+00 2.916574001E+00
 1.275418401E+00 1.579476833E+00 2.919743061E+00
 1.269438148E+00 1.583568573E+00 2.922859669E+00
 1.263447881E+00 1.587686777E+00 2.925942898E+00
 1.257442117E+00 1.591799498E+00 2.928975105E+00
 1.251382470E+00 1.595929623E+00 2.931900978E+00
 1.245299220E+00 1.600061417E+00 2.934744358E+00
 1.239187360E+00 1.604189396E+00 2.937565327E+00
 1.233085513E+00 1.608345747E+00 2.940354824E+00
 1.226991773E+00 1.612504482E+00 2.943165302E+00
 1.220908046E+00 1.616673231E+00 2.945965767E+00
 1.214815021E+00 1.620850086E+00 2.948754787E+00
 1.208706021E+00 1.625021696E+00 2.951482773E+00
 1.202561975E+00 1.629194975E+00 2.954146385E+00
 1.196400762E+00 1.633373260E+00 2.956768990E+00
 1.190249324E+00 1.637553215E+00 2.959392548E+00
 1.184087634E+00 1.641740799E+00 2.962003231E+00
 1.177918077E+00 1.645917177E+00 2.964604855E+00
 1.181471944E+00 1.650660276E+00 2.960857391E+00
 1.184651732E+00 1.654932737E+00 2.956899643E+00
 1.189097047E+00 1.658301353E+00 2.952226162E+00
 1.193247676E+00 1.662792921E+00 2.946785450E+00
 1.197010875E+00 1.667295694E+00 2.941261292E+00
 1.200632215E+00 1.671603918E+00 2.935718536E+00
 1.204219699E+00 1.675746441E+00 2.930154800E+00
 1.207815289E+00 1.679826498E+00 2.924555302E+00
 1.211433053E+00 1.683907032E+00 2.918937683E+00
 1.215076804E+00 1.688011885E+00 2.913341045E+00
 1.218747735E+00 1.692195415E+00 2.907821655E+00
 1.222461820E+00 1.696471691E+00 2.902419567E+00
 1.226203799E+00 1.700835466E+00 2.897205353E+00
 1.230010629E+00 1.705292702E+00 2.892210960E+00
 1.233886838E+00 1.709857941E+00 2.887496471E+00
 1.237977624E+00 1.714483023E+00 2.883067608E+00
 1.242489457E+00 1.719013214E+00 2.879031658E+00
 1.247517228E+00 1.723323822E+00 2.875487804E+00
 1.252961040E+00 1.727396011E+00 2.872447491E+00
 1.258674264E+00 1.731297970E+00 2.869894981E+00
 1.264670253E+00 1.735045910E+00 2.867778778E+00
 1.270952582E+00 1.738766193E+00 2.866030693E+00
 1.277467132E+00 1.742531538E+00 2.864610672E+00
 1.284208179E+00 1.746301174E+00 2.863521099E+00
 1.291031957E+00 1.750093699E+00 2.862758636E+00
 1.297965169E+00 1.753858805E+00 2.862308979E+00
 1.304823279E+00 1.757696152E+00 2.862099171E+00
 1.311360002E+00 1.761572599E+00 2.862091541E+00
 1.317132354E+00 1.765176296E+00 2.862260342E+00
 1.323595643E+00 1.767176628E+00 2.862931252E+00
 1.330801129E+00 1.769532681E+00 2.863750458E+00
 1.338202119E+00 1.772094250E+00 2.864661694E+00
 1.345542312E+00 1.774706125E+00 2.865644455E+00
 1.352926373E+00 1.777217388E+00 2.866709232E+00
 1.360348105E+00 1.779595137E+00 2.867825985E+00
 1.367775798E+00 1.781792879E+00 2.868956089E+00
 1.375196338E+00 1.783931732E+00 2.870109558E+00
 1.382641912E+00 1.785985231E+00 2.871301651E+00
 1.390132308E+00 1.787945747E+00 2.872544289E+00
 1.397667766E+00 1.789794445E+00 2.873858929E+00
 1.405287385E+00 1.791527033E+00 2.875268936E+00
 1.412964940E+00 1.793155193E+00 2.876822472E+00
 1.420697808E+00 1.794598341E+00 2.878533840E+00
 1.428506494E+00 1.795988083E+00 2.880506992E+00
 1.436344504E+00 1.797343254E+00 2.882786751E+00
 1.443949103E+00 1.798913240E+00 2.885494709E+00
 1.448727012E+00 1.801375866E+00 2.888406754E+00
 1.454510093E+00 1.799526691E+00 2.888727665E+00
 1.462374806E+00 1.798903465E+00 2.890645504E+00
 1.470256209E+00 1.798552513E+00 2.892938137E+00
 1.477992892E+00 1.798184395E+00 2.895300388E+00
 1.485619426E+00 1.797714710E+00 2.897640228E+00
 1.493173480E+00 1.797102690E+00 2.899913788E+00
 1.500687718E+00 1.796330690E+00 2.902114391E+00
 1.508182168E+00 1.795381546E+00 2.904255867E+00
 1.515645385E+00 1.794245720E+00 2.906366825E+00
 1.523046851E+00 1.792913198E+00 2.908466816E+00
 1.530293107E+00 1.791378498E+00 2.910598755E+00
 1.537303567E+00 1.789653778E+00 2.912744045E+00
 1.543976665E+00 1.787658215E+00 2.914759159E+00
 1.550485730E+00 1.785006523E+00 2.916404247E+00
 1.557106376E+00 1.781947613E+00 2.917996883E+00
 1.563768029E+00 1.778568268E+00 2.919565201E+00
 1.570399165E+00 1.774909735E+00 2.921070099E+00
 1.576961637E+00 1.770995617E+00 2.922476292E+00
 1.583426833E+00 1.766802788E+00 2.923763275E+00
 1.589780688E+00 1.762352705E+00 2.924968719E+00
 1.595986247E+00 1.757685423E+00 2.926136494E+00
 1.601998925E+00 1.752884626E+00 2.927348137E+00
 1.607713103E+00 1.748167992E+00 2.928679466E+00
 1.612776875E+00 1.743849277E+00 2.930009365E+00
 1.616959214E+00 1.738506556E+00 2.930130005E+00
 1.621523499E+00 1.732493639E+00 2.930400372E+00
 1.626199603E+00 1.726229191E+00 2.930818081E+00
 1.630832314E+00 1.719854116E+00 2.931280136E+00
 1.635350823E+00 1.713436365E+00 2.931705952E+00
 1.639757752E+00 1.706964016E+00 2.932075500E+00
 1.644044042E+00 1.700445652E+00 2.932368279E+00
 1.648187280E+00 1.693890572E+00 2.932600975E+00
 1.652168870E+00 1.687276602E+00 2.932774067E+00
 1.655969501E+00 1.680574894E+00 2.932918549E+00
 1.659549356E+00 1.673753262E+00 2.933062077E+00
 1.662896037E+00 1.666822910E+00 2.933225155E+00
 1.666008592E+00 1.659747601E+00 2.933458328E+00
 1.668900847E+00 1.652561665E+00 2.933812141E+00
 1.671577334E+00 1.645316362E+00 2.934282303E+00
 1.674039245E+00 1.638020754E+00 2.934859753E+00
 1.676310658E+00 1.630645037E+00 2.935516834E+00
 1.678427577E+00 1.623232603E+00 2.936264038E+00
 1.680413604E+00 1.615782022E+00 2.937053680E+00
 1.682278752E+00 1.608303785E+00 2.937875271E+00
 1.684053302E+00 1.600818634E+00 2.938710213E+00
 1.685718894E+00 1.593313694E+00 2.939536572E+00
 1.687296271E+00 1.585790634E+00 2.940357208E+00
 1.688727736E+00 1.578223705E+00 2.941158772E+00
 1.689982772E+00 1.570611477E+00 2.941959381E+00
 1.691065907E+00 1.562967300E+00 2.942797184E+00
 1.691924453E+00 1.555327415E+00 2.943677425E+00
 1.692710996E+00 1.547590733E+00 2.944688320E+00
 1.693364978E+00 1.539872885E+00 2.945827484E+00
 1.693898797E+00 1.532256126E+00 2.947101116E+00
 1.694292188E+00 1.524839878E+00 2.948519230E+00
 1.694456220E+00 1.517736197E+00 2.950067997E+00
 1.693954110E+00 1.510720015E+00 2.951786041E+00
 1.693150640E+00 1.503550768E+00 2.953811169E+00
 1.692181945E+00 1.496381521E+00 2.956144810E+00
 1.691086173E+00 1.489245415E+00 2.958787441E+00
 1.689871669E+00 1.482273340E+00 2.961730480E+00
 1.688512444E+00 1.475532770E+00 2.964966774E+00
 1.686903596E+00 1.469085217E+00 2.968484402E+00
 1.684972644E+00 1.462963104E+00 2.972273350E+00
 1.682409167E+00 1.457242012E+00 2.976343632E+00
 1.679262996E+00 1.452000141E+00 2.980613232E+00
 1.675641418E+00 1.447147846E+00 2.985107899E+00
 1.671869159E+00 1.442532301E+00 2.989834785E+00
 1.668103576E+00 1.438022375E+00 2.994876385E+00
 1.664369464E+00 1.433652163E+00 3.000132084E+00
 1.660632253E+00 1.429404020E+00 3.005539894E+00
 1.656925321E+00 1.425278425E+00 3.011062622E+00
 1.653218389E+00 1.421217442E+00 3.016641140E+00
 1.649525762E+00 1.417209148E+00 3.022237301E+00
 1.645843387E+00 1.413182735E+00 3.027845383E+00
 1.642179608E+00 1.409095049E+00 3.033419132E+00
 1.638578296E+00 1.404908895E+00 3.038955212E+00
 1.635095239E+00 1.400632381E+00 3.044366360E+00
 1.631858230E+00 1.396352768E+00 3.049466133E+00
 1.628292441E+00 1.392127037E+00 3.054061413E+00
 1.624658465E+00 1.387617111E+00 3.058440685E+00
 1.619351029E+00 1.390091419E+00 3.053960800E+00
 1.614274621E+00 1.392501354E+00 3.049434662E+00
 1.609455228E+00 1.395267963E+00 3.044552803E+00
 1.604349256E+00 1.398034334E+00 3.039465427E+00
 1.599199414E+00 1.400754452E+00 3.034347534E+00
 1.594091058E+00 1.403522968E+00 3.029159546E+00
 1.588919044E+00 1.406280518E+00 3.023896694E+00
 1.583681464E+00 1.409009695E+00 3.018599987E+00
 1.578450084E+00 1.411687851E+00 3.013287544E+00
 1.573230863E+00 1.414345980E+00 3.007966995E+00
 1.568017364E+00 1.416962862E+00 3.002619743E+00
 1.562819362E+00 1.419538975E+00 2.997256756E+00
 1.557636142E+00 1.422084332E+00 2.991867065E+00
 1.552498937E+00 1.424590826E+00 2.986443520E+00
 1.547397971E+00 1.427076578E+00 2.980974197E+00
 1.542345405E+00 1.429512024E+00 2.975452423E+00
 1.537342191E+00 1.431897163E+00 2.969877243E+00
 1.532395720E+00 1.434271574E+00 2.964227676E+00
 1.527522445E+00 1.436575413E+00 2.958498478E+00
 1.522698760E+00 1.438837528E+00 2.952695847E+00
 1.517946839E+00 1.441049099E+00 2.946812153E+00
 1.513265967E+00 1.443191051E+00 2.940858841E+00
 1.508658290E+00 1.445281982E+00 2.934814930E+00
 1.504081607E+00 1.447309017E+00 2.928697109E+00
 1.499549747E+00 1.449326515E+00 2.922533512E+00
 1.495008349E+00 1.451343060E+00 2.916368961E+00
 1.490419984E+00 1.453389406E+00 2.910249233E+00
 1.485770583E+00 1.455487251E+00 2.904211521E+00
 1.481043935E+00 1.457658768E+00 2.898302555E+00
 1.476195455E+00 1.459932566E+00 2.892547131E+00
 1.471211791E+00 1.462337971E+00 2.886952400E+00
 1.466028571E+00 1.464901924E+00 2.881540775E+00
 1.460650563E+00 1.467610598E+00 2.876395702E+00
 1.455104232E+00 1.470441818E+00 2.871588707E+00
 1.449292541E+00 1.473514080E+00 2.867064953E+00
 1.443223834E+00 1.476718664E+00 2.862973213E+00
 1.436926723E+00 1.480152130E+00 2.859359741E+00
 1.430523515E+00 1.483766556E+00 2.856378078E+00
 1.423777699E+00 1.487613201E+00 2.854045868E+00
 1.416976571E+00 1.491580009E+00 2.852545261E+00
 1.410061717E+00 1.495817661E+00 2.851810932E+00
 1.403239131E+00 1.500153542E+00 2.851851940E+00
 1.396717668E+00 1.504541159E+00 2.852498055E+00
 1.390059590E+00 1.508877754E+00 2.853800297E+00
 1.383574843E+00 1.513106108E+00 2.855597496E+00
 1.377194762E+00 1.517366409E+00 2.857823849E+00
 1.370958686E+00 1.521598339E+00 2.860435963E+00
 1.364874959E+00 1.525776386E+00 2.863356113E+00