VARIABLES = X,Y,Z
ZONE NODES  =    8466,ELEMENTS   =    8464
DATAPACKING = POINT
ZONETYPE    = FEQUADRILATERAL
   1.25748002500000        1.29156005400000        2.60174989700000     
   1.25574004700000        1.28612005700000        2.60626006100000     
   1.25997996300000        1.28893995300000        2.61067009000000     
   1.26040995100000        1.29242003000000        2.60646009400000     
   1.25055003200000        1.28261995300000        2.60096001600000     
   1.25232005100000        1.28858995400000        2.59596991500000     
   1.25460004800000        1.28085994700000        2.61184001000000     
   1.25943994500000        1.28454995200000        2.61655998200000     
   1.26414001000000        1.29284000400000        2.61426997200000     
   1.26367998100000        1.29649996800000        2.60752010300000     
   1.26130998100000        1.29891002200000        2.59860992400000     
   1.24931001700000        1.27706003200000        2.60680007900000     
   1.25443995000000        1.29498994400000        2.59095001200000     
   1.24632000900000        1.28480005300000        2.59043002100000     
   1.24498999100000        1.27859997700000        2.59569001200000     
   1.25379002100000        1.27586996600000        2.61798000300000     
   1.25890004600000        1.27980005700000        2.62299990700000     
   1.26409995600000        1.28849995100000        2.62073993700000     
   1.26890003700000        1.29736995700000        2.61816000900000     
   1.26863002800000        1.30154001700000        2.61083006900000     
   1.26809001000000        1.30566000900000        2.60323000000000     
   1.24372994900000        1.27266001700000        2.60115003600000     
   1.24837994600000        1.27163004900000        2.61265993100000     
   1.26226997400000        1.30564999600000        2.59077000600000     
   1.25567996500000        1.30129003500000        2.58506989500000     
   1.24791002300000        1.29103994400000        2.58512997600000     
   1.23915994200000        1.27418005500000        2.59004998200000     
   1.24028003200000        1.28058004400000        2.58476996400000     
   1.25302004800000        1.27095997300000        2.62433004400000     
   1.25829994700000        1.27514004700000        2.62963008900000     
   1.26389002800000        1.28400003900000        2.62773990600000     
   1.26886999600000        1.29293000700000        2.62519002000000     
   1.27371001200000        1.30215001100000        2.62230992300000     
   1.27366995800000        1.30664002900000        2.61526989900000     
   1.26835000500000        1.31081998300000        2.59593009900000     
   1.27359998200000        1.31113994100000        2.60791993100000     
   1.23812997300000        1.26793003100000        2.59525990500000     
   1.24272000800000        1.26701998700000        2.60697007200000     
   1.24769997600000        1.26656997200000        2.61875009500000     
   1.26303994700000        1.31131994700000        2.58408999400000     
   1.25672996000000        1.30700004100000        2.57896995500000     
   1.24910998300000        1.29706001300000        2.57932996700000     
   1.24152994200000        1.28683996200000        2.57926011100000     
   1.23460996200000        1.27621996400000        2.57883000400000     
   1.23368001000000        1.26968002300000        2.58406996700000     
   1.25217998000000        1.26613998400000        2.63094997400000     
   1.25724005700000        1.27006995700000        2.63683009100000     
   1.26350998900000        1.27947998000000        2.63466000600000     
   1.26877999300000        1.28847003000000        2.63217997600000     
   1.27368998500000        1.29770994200000        2.62962007500000     
   1.27847003900000        1.30720996900000        2.62674999200000     
   1.27856004200000        1.31172001400000        2.61970996900000     
   1.27383995100000        1.31602001200000        2.60089993500000     
   1.26879000700000        1.31607997400000        2.58924007400000     
   1.27867996700000        1.31632995600000        2.61266994500000     
   1.23278999300000        1.26310002800000        2.58933997200000     
   1.23719000800000        1.26177001000000        2.60072994200000     
   1.24197995700000        1.26151001500000        2.61309003800000     
   1.24703002000000        1.26165998000000        2.62508010900000     
   1.26350998900000        1.31669998200000        2.57808995200000     
   1.25727999200000        1.31251001400000        2.57319998700000     
   1.24997997300000        1.30291998400000        2.57381010100000     
   1.24244999900000        1.29293000700000        2.57410001800000     
   1.23558998100000        1.28276002400000        2.57394003900000     
   1.25091004400000        1.26117003000000        2.63682007800000     
   1.25539004800000        1.26366996800000        2.64462995500000     
   1.26286995400000        1.27503001700000        2.64211988400000     
   1.26863002800000        1.28416001800000        2.63938999200000     
   1.27358996900000        1.29334998100000        2.63661003100000     
   1.27839994400000        1.30280005900000        2.63376998900000     
   1.28312003600000        1.31246995900000        2.63119006200000     
   1.28330004200000        1.31691002800000        2.62415003800000     
   1.27885997300000        1.32104003400000        2.60593009000000     
   1.27407002400000        1.32096004500000        2.59421992300000     
   1.26916003200000        1.32121002700000        2.58293008800000     
   1.28345000700000        1.32144999500000        2.61743998500000     
   1.23187005500000        1.25653004600000        2.59424996400000     
   1.23626995100000        1.25581002200000        2.60622000700000     
   1.24147999300000        1.25629997300000        2.61914992300000     
   1.24639999900000        1.25718998900000        2.63118004800000     
   1.26363003300000        1.32213997800000        2.57234001200000     
   1.25756001500000        1.31791997000000        2.56743001900000     
   1.25065994300000        1.30850994600000        2.56828999500000     
   1.24328005300000        1.29879999200000        2.56887006800000     
   1.23619997500000        1.28877997400000        2.56875991800000     
   1.24928998900000        1.25715005400000        2.63959002500000     
   1.25049996400000        1.25629997300000        2.64488005600000     
   1.26198995100000        1.27032995200000        2.64991998700000     
   1.26821994800000        1.28006005300000        2.64655995400000     
   1.27348005800000        1.28918004000000        2.64383006100000     
   1.27830004700000        1.29858994500000        2.64073991800000     
   1.28299999200000        1.30815005300000        2.63791990300000     
   1.28766000300000        1.31789004800000        2.63534998900000     
   1.28782999500000        1.32221996800000        2.62859988200000     
   1.28354001000000        1.32620000800000        2.61070990600000     
   1.27899003000000        1.32599997500000        2.59925007800000     
   1.27420997600000        1.32612001900000        2.58814001100000     
   1.26918995400000        1.32667994500000        2.57719993600000     
   1.28799998800000        1.32670998600000        2.62191009500000     
   1.23084998100000        1.24997997300000        2.59911990200000     
   1.23536002600000        1.24975001800000        2.61228990600000     
   1.24093997500000        1.25152003800000        2.62577009200000     
   1.24599003800000        1.25349998500000        2.63672995600000     
   1.26362001900000        1.32771003200000        2.56681990600000     
   1.25761997700000        1.32336998000000        2.56221008300000     
   1.25106000900000        1.31394004800000        2.56276011500000     
   1.24382996600000        1.30452001100000        2.56359005000000     
   1.23678994200000        1.29481995100000        2.56381011000000     
   1.24605000000000        1.25063002100000        2.64286994900000     
   1.25075995900000        1.25327003000000        2.65240001700000     
   1.25594997400000        1.25994002800000        2.65464997300000     
   1.26774001100000        1.27614998800000        2.65436005600000     
   1.26171004800000        1.26644003400000        2.65828990900000     
   1.27329003800000        1.28534996500000        2.65101003600000     
   1.27818000300000        1.29457998300000        2.64796996100000     
   1.28289997600000        1.30408000900000        2.64487004300000     
   1.28750002400000        1.31374001500000        2.64207005500000     
   1.29203999000000        1.32346999600000        2.63952994300000     
   1.29218995600000        1.32767999200000        2.63306999200000     
   1.28807997700000        1.33143997200000        2.61549997300000     
   1.28365004100000        1.33115005500000        2.60427999500000     
   1.27910995500000        1.33116996300000        2.59313988700000     
   1.27434003400000        1.33151996100000        2.58206009900000     
   1.26918005900000        1.33231997500000        2.57138991400000     
   1.29230999900000        1.33210003400000        2.62636995300000     
   1.22983002700000        1.24337005600000        2.60404992100000     
   1.23471999200000        1.24314999600000        2.61940002400000     
   1.24149000600000        1.24825000800000        2.63273000700000     
   1.26348996200000        1.33343994600000        2.56123995800000     
   1.25751996000000        1.32903003700000        2.55689001100000     
   1.25117003900000        1.31933999100000        2.55752992600000     
   1.24425995300000        1.31002998400000        2.55833005900000     
   1.23714005900000        1.30050003500000        2.55879998200000     
   1.24161005000000        1.24495995000000        2.63915991800000     
   1.24600994600000        1.24712002300000        2.64929008500000     
   1.25050997700000        1.24969995000000        2.65965008700000     
   1.25583005000000        1.25626003700000        2.66273999200000     
   1.26733994500000        1.27253997300000        2.66187000300000     
   1.27295005300000        1.28180003200000        2.65822005300000     
   1.26134002200000        1.26289999500000        2.66609001200000     
   1.27805995900000        1.29087996500000        2.65492010100000     
   1.28276002400000        1.30025005300000        2.65211010000000     
   1.28738999400000        1.30979001500000        2.64902997000000     
   1.29191994700000        1.31946003400000        2.64623999600000     
   1.29630994800000        1.32915997500000        2.64373993900000     
   1.29639005700000        1.33325004600000        2.63729000100000     
   1.29244005700000        1.33676004400000        2.61996007000000     
   1.28817999400000        1.33640003200000        2.60905003500000     
   1.28376996500000        1.33633995100000        2.59786009800000     
   1.27920997100000        1.33659994600000        2.58699989300000     
   1.27441000900000        1.33715999100000        2.57626009000000     
   1.26911997800000        1.33808994300000        2.56585001900000     
   1.29653000800000        1.33756995200000        2.63085007700000     
   1.22872996300000        1.23680996900000        2.60863995600000     
   1.23684001000000        1.24216997600000        2.62867999100000     
   1.26340997200000        1.33925998200000        2.55589008300000     
   1.25743997100000        1.33472001600000        2.55153989800000     
   1.25116002600000        1.32483995000000        2.55248999600000     
   1.24451005500000        1.31541001800000        2.55309009600000     
   1.23747003100000        1.30610001100000        2.55353999100000     
   1.23734998700000        1.23913002000000        2.63543009800000     
   1.24135994900000        1.24114000800000        2.64585995700000     
   1.24559998500000        1.24327004000000        2.65652990300000     
   1.25010001700000        1.24591004800000        2.66692996000000     
   1.25537002100000        1.25274002600000        2.67028999300000     
   1.26695001100000        1.26933002500000        2.66938996300000     
   1.27263999000000        1.27857995000000        2.66545009600000     
   1.27788996700000        1.28760004000000        2.66212010400000     
   1.26094996900000        1.25955998900000        2.67365002600000     
   1.28264999400000        1.29670000100000        2.65911006900000     
   1.28726995000000        1.30611002400000        2.65601992600000     
   1.29177999500000        1.31566000000000        2.65295004800000     
   1.29620003700000        1.32533001900000        2.65017008800000     
   1.30033004300000        1.33478999100000        2.64770007100000     
   1.30051994300000        1.33872997800000        2.64179992700000     
   1.29665005200000        1.34214997300000        2.62470006900000     
   1.29253995400000        1.34167003600000        2.61351990700000     
   1.28830003700000        1.34154999300000        2.60260009800000     
   1.28392005000000        1.34170997100000        2.59172010400000     
   1.27934002900000        1.34217000000000        2.58088994000000     
   1.27445995800000        1.34291994600000        2.57046008100000     
   1.26911997800000        1.34396004700000        2.56051993400000     
   1.30066001400000        1.34300005400000        2.63562989200000     
   1.22762000600000        1.23020994700000        2.61353993400000     
   1.23153996500000        1.23494994600000        2.62146997500000     
   1.23396003200000        1.23708999200000        2.62719011300000     
   1.26337003700000        1.34520995600000        2.55028009400000     
   1.25726997900000        1.34047997000000        2.54622006400000     
   1.25106000900000        1.33043003100000        2.54716992400000     
   1.24457001700000        1.32085001500000        2.54807996700000     
   1.23766994500000        1.31152999400000        2.54888010000000     
   1.23365998300000        1.23374998600000        2.63140010800000     
   1.23705005600000        1.23518002000000        2.64182996700000     
   1.24089002600000        1.23698997500000        2.65279007000000     
   1.24503004600000        1.23933005300000        2.66353988600000     
   1.24948000900000        1.24220001700000        2.67416000400000     
   1.25493001900000        1.24925005400000        2.67756009100000     
   1.26654005100000        1.26631999000000        2.67668008800000     
   1.27228999100000        1.27568996000000        2.67270994200000     
   1.27767002600000        1.28465998200000        2.66908001900000     
   1.28259003200000        1.29351997400000        2.66579008100000     
   1.26051998100000        1.25636005400000        2.68093991300000     
   1.28717994700000        1.30265998800000        2.66304993600000     
   1.29170000600000        1.31204998500000        2.65996003200000     
   1.29611003400000        1.32167005500000        2.65690994300000     
   1.30037999200000        1.33127999300000        2.65387988100000     
   1.30408000900000        1.34000003300000        2.65140008900000     
   1.30435001900000        1.34379005400000        2.64633989300000     
   1.30076003100000        1.34755003500000        2.62919998200000     
   1.29675996300000        1.34697997600000        2.61824989300000     
   1.29267001200000        1.34677004800000        2.60734009700000     
   1.28845000300000        1.34685003800000        2.59644007700000     
   1.28408002900000        1.34721005000000        2.58558011100000     
   1.27946996700000        1.34783995200000        2.57508993100000     
   1.27451002600000        1.34877002200000        2.56489992100000     
   1.26916003200000        1.34993994200000        2.55491995800000     
   1.30465996300000        1.34819996400000        2.64042997400000     
   1.22646999400000        1.22337997000000        2.61879992500000     
   1.23021996000000        1.22888004800000        2.62593007100000     
   1.26322996600000        1.35150003400000        2.54474997500000     
   1.25700998300000        1.34637999500000        2.54067993200000     
   1.25097000600000        1.33606004700000        2.54214000700000     
   1.24454999000000        1.32632994700000        2.54308009100000     
   1.23781001600000        1.31693005600000        2.54388999900000     
   1.23328995700000        1.22931003600000        2.63752007500000     
   1.23672998000000        1.23072004300000        2.64877009400000     
   1.24021995100000        1.23277998000000        2.65975999800000     
   1.24448001400000        1.23530995800000        2.67079997100000     
   1.24863994100000        1.23834002000000        2.68174004600000     
   1.25439000100000        1.24582004500000        2.68514990800000     
   1.26619005200000        1.26346004000000        2.68401002900000     
   1.27199995500000        1.27303004300000        2.67972993900000     
   1.27745997900000        1.28205001400000        2.67579007100000     
   1.28250002900000        1.29078996200000        2.67247009300000     
   1.28712999800000        1.29955005600000        2.66975998900000     
   1.26008999300000        1.25320994900000        2.68856000900000     
   1.29162001600000        1.30865001700000        2.66701006900000     
   1.29611003400000        1.31806004000000        2.66395998000000     
   1.30043995400000        1.32772004600000        2.66062998800000     
   1.30434000500000        1.33710002900000        2.65732002300000     
   1.30680000800000        1.34378004100000        2.65426993400000     
   1.30797004700000        1.34802997100000        2.65146994600000     
   1.30476999300000        1.35284996000000        2.63399004900000     
   1.30080997900000        1.35233998300000        2.62274003000000     
   1.29684996600000        1.35201001200000        2.61179995500000     
   1.29280996300000        1.35199999800000        2.60089993500000     
   1.28860998200000        1.35227000700000        2.59029007000000     
   1.28421998000000        1.35282003900000        2.57976007500000     
   1.27953994300000        1.35365998700000        2.56956005100000     
   1.27454996100000        1.35479998600000        2.55958008800000     
   1.26923000800000        1.35625994200000        2.54965996700000     
   1.30853998700000        1.35308003400000        2.64556002600000     
   1.22534000900000        1.21665000900000        2.62432003000000     
   1.22947001500000        1.22353994800000        2.63175988200000     
   1.26292002200000        1.35906994300000        2.53835010500000     
   1.25633001300000        1.35230004800000        2.53515005100000     
   1.25068998300000        1.34168994400000        2.53688001600000     
   1.24449002700000        1.33185994600000        2.53835010500000     
   1.23778998900000        1.32236003900000        2.53919005400000     
   1.23294997200000        1.22483003100000        2.64447999000000     
   1.23608005000000        1.22619998500000        2.65569996800000     
   1.23959994300000        1.22844004600000        2.66709995300000     
   1.24389004700000        1.23131001000000        2.67838001300000     
   1.26593995100000        1.26064002500000        2.69138002400000     
   1.27180004100000        1.27047002300000        2.68708992000000     
   1.27731001400000        1.27962994600000        2.68255996700000     
   1.28236997100000        1.28836000000000        2.67892003100000     
   1.28701996800000        1.29681003100000        2.67590999600000     
   1.29155004000000        1.30544996300000        2.67347002000000     
   1.29604005800000        1.31459999100000        2.67072010000000     
   1.30050003500000        1.32416999300000        2.66769003900000     
   1.30471003100000        1.33389997500000        2.66380000100000     
   1.30806994400000        1.34314000600000        2.65936994600000     
   1.31184005700000        1.35090994800000        2.65915989900000     
   1.30867004400000        1.35803997500000        2.63909006100000     
   1.30474996600000        1.35766005500000        2.62753009800000     
   1.30087995500000        1.35731005700000        2.61654996900000     
   1.29694998300000        1.35720002700000        2.60562992100000     
   1.29290998000000        1.35738003300000        2.59503006900000     
   1.28874003900000        1.35784995600000        2.58447003400000     
   1.28433001000000        1.35862994200000        2.57422995600000     
   1.27964997300000        1.35969996500000        2.56426000600000     
   1.27471005900000        1.36108994500000        2.55427002900000     
   1.26942002800000        1.36313998700000        2.54436993600000     
   1.31255996200000        1.35776996600000        2.65129995300000     
   1.22672998900000        1.21338999300000        2.63637995700000     
   1.22942996000000        1.21908998500000        2.63984990100000     
   1.25964999200000        1.36222004900000        2.53174996400000     
   1.25476002700000        1.35733997800000        2.52958011600000     
   1.25015997900000        1.34735000100000        2.53191995600000     
   1.24432003500000        1.33747005500000        2.53333997700000     
   1.23777997500000        1.32783997100000        2.53447008100000     
   1.23229003000000        1.22011995300000        2.65143990500000     
   1.23515999300000        1.22140002300000        2.66303992300000     
   1.23909997900000        1.22417998300000        2.67501997900000     
   1.27177000000000        1.26804995500000        2.69447994200000     
   1.27724003800000        1.27735996200000        2.68964004500000     
   1.28236997100000        1.28620004700000        2.68544006300000     
   1.28700995400000        1.29452002000000        2.68180990200000     
   1.29131996600000        1.30254995800000        2.67965006800000     
   1.29586005200000        1.31108999300000        2.67775011100000     
   1.30050003500000        1.32052004300000        2.67473006200000     
   1.30485999600000        1.33036994900000        2.67111992800000     
   1.30879998200000        1.34019994700000        2.66669988600000     
   1.31303000500000        1.34704005700000        2.66873002100000     
   1.31266999200000        1.36333000700000        2.64424991600000     
   1.30867004400000        1.36303997000000        2.63232994100000     
   1.30476999300000        1.36266005000000        2.62103009200000     
   1.30093002300000        1.36247003100000        2.61009001700000     
   1.29704999900000        1.36252999300000        2.59948992700000     
   1.29303002400000        1.36293005900000        2.58889007600000     
   1.28887999100000        1.36362004300000        2.57892990100000     
   1.28445994900000        1.36467003800000        2.56895995100000     
   1.27973997600000        1.36601996400000        2.55890989300000     
   1.27488994600000        1.36767005900000        2.54901003800000     
   1.26542997400000        1.36714005500000        2.53555011700000     
   1.27017998700000        1.37027001400000        2.53992009200000     
   1.31701004500000        1.35824000800000        2.66403007500000     
   1.31689000100000        1.36366999100000        2.65616011600000     
   1.22396004200000        1.20956003700000        2.62988996500000     
   1.22474002800000        1.20695996300000        2.63831996900000     
   1.22707998800000        1.21123004000000        2.64281010600000     
   1.22916996500000        1.21490001700000        2.64655995400000     
   1.26239001800000        1.36645996600000        2.53202009200000     
   1.25795996200000        1.36677002900000        2.52647995900000     
   1.25336003300000        1.36239004100000        2.52406001100000     
   1.24919998600000        1.35277998400000        2.52663993800000     
   1.24383997900000        1.34309995200000        2.52836990400000     
   1.23756003400000        1.33360004400000        2.52973008200000     
   1.23138999900000        1.21472001100000        2.65815997100000     
   1.23458004000000        1.21616005900000        2.67072010000000     
   1.27725994600000        1.27512002000000        2.69672989800000     
   1.28249001500000        1.28406000100000        2.69195008300000     
   1.28714001200000        1.29252004600000        2.68776989000000     
   1.29106998400000        1.30005002000000        2.68442010900000     
   1.29526996600000        1.30750000500000        2.68337988900000     
   1.30033004300000        1.31665003300000        2.68232989300000     
   1.30501997500000        1.32676994800000        2.67845010800000     
   1.30921995600000        1.33673000300000        2.67400002500000     
   1.31353998200000        1.34318995500000        2.67716002500000     
   1.31754994400000        1.35374999000000        2.67245006600000     
   1.31666004700000        1.36887002000000        2.64882993700000     
   1.31252002700000        1.36844003200000        2.63718009000000     
   1.30858004100000        1.36802995200000        2.62583994900000     
   1.30478000600000        1.36775004900000        2.61455011400000     
   1.30101001300000        1.36769998100000        2.60394001000000     
   1.29714000200000        1.36798000300000        2.59361004800000     
   1.29316997500000        1.36863005200000        2.58335995700000     
   1.28900003400000        1.36965000600000        2.57335996600000     
   1.28460001900000        1.37095999700000        2.56363010400000     
   1.27996003600000        1.37243998100000        2.55365991600000     
   1.27516996900000        1.37446999500000        2.54431009300000     
   1.27041995500000        1.37709999100000        2.53551006300000     
   1.26587998900000        1.37351000300000        2.53167009400000     
   1.32097995300000        1.36954999000000        2.66072988500000     
   1.32142996800000        1.36465001100000        2.66829991300000     
   1.22258997000000        1.20246994500000        2.63521003700000     
   1.22264003800000        1.19932997200000        2.64168000200000     
   1.22561001800000        1.20589005900000        2.64533996600000     
   1.22801995300000        1.20932996300000        2.65188002600000     
   1.26191997500000        1.37068998800000        2.52867007300000     
   1.25647997900000        1.37217998500000        2.52099990800000     
   1.25197005300000        1.36755001500000        2.51912999200000     
   1.24818003200000        1.35821998100000        2.52168989200000     
   1.24322998500000        1.34865999200000        2.52367997200000     
   1.23731005200000        1.33925998200000        2.52476000800000     
   1.23012995700000        1.20826995400000        2.66634988800000     
   1.28271997000000        1.28213000300000        2.69901990900000     
   1.28741002100000        1.29058003400000        2.69430995000000     
   1.29152000000000        1.29867005300000        2.69009995500000     
   1.29405999200000        1.30425000200000        2.68643999100000     
   1.29952001600000        1.31161999700000        2.69026994700000     
   1.30507004300000        1.32304000900000        2.68607997900000     
   1.30944001700000        1.33308005300000        2.68190002400000     
   1.31388998000000        1.33942997500000        2.68478989600000     
   1.31793999700000        1.34960997100000        2.68033003800000     
   1.32182002100000        1.36009001700000        2.67615008400000     
   1.32056999200000        1.37460005300000        2.65337991700000     
   1.31637001000000        1.37399995300000        2.64175009700000     
   1.31236004800000        1.37348997600000        2.63039994200000     
   1.30850005100000        1.37309002900000        2.61932992900000     
   1.30476999300000        1.37288999600000        2.60840010600000     
   1.30102002600000        1.37303996100000        2.59807992000000     
   1.29720997800000        1.37362003300000        2.58776998500000     
   1.29328000500000        1.37459003900000        2.57805991200000     
   1.28913998600000        1.37586998900000        2.56806993500000     
   1.28473997100000        1.37732994600000        2.55837988900000     
   1.28000998500000        1.37907004400000        2.54897999800000     
   1.27514004700000        1.38122999700000        2.53963995000000     
   1.26549005500000        1.37996995400000        2.52700996400000     
   1.27000999500000        1.38376998900000        2.53088998800000     
   1.32541000800000        1.37073004200000        2.67225003200000     
   1.32492995300000        1.37548995000000        2.66498994800000     
   1.22270000000000        1.19621002700000        2.64843010900000     
   1.22637999100000        1.20220005500000        2.65749001500000     
   1.26110994800000        1.37627005600000        2.52373004000000     
   1.25390994500000        1.37836003300000        2.51482009900000     
   1.25013995200000        1.37206995500000        2.51430988300000     
   1.24705004700000        1.36342001000000        2.51701998700000     
   1.24247002600000        1.35416996500000        2.51900005300000     
   1.23681998300000        1.34484005000000        2.52034997900000     
   1.28766000300000        1.28852999200000        2.70110011100000     
   1.29208004500000        1.29685998000000        2.69641995400000     
   1.29550004000000        1.30456996000000        2.69130992900000     
   1.30514001800000        1.31928002800000        2.69408989000000     
   1.30972003900000        1.32947003800000        2.68957996400000     
   1.31423997900000        1.33577001100000        2.69280004500000     
   1.31830000900000        1.34573996100000        2.68824005100000     
   1.32219994100000        1.35590004900000        2.68376994100000     