VARIABLES = X,Y,Z
ZONE NODES  =    9282,ELEMENTS   =    9284
DATAPACKING = POINT
ZONETYPE    = FEQUADRILATERAL
   1.35091000000000        1.60038000000000        2.91521000000000     
   1.35409000000000        1.59589000000000        2.91039000000000     
   1.35571000000000        1.60414000000000        2.91549000000000     
   1.35264000000000        1.60409000000000        2.91691000000000     
   1.36167000000000        1.60014000000000        2.91011000000000     
   1.36074000000000        1.60655000000000        2.91492000000000     
   1.35541000000000        1.60990000000000        2.91946000000000     
   1.35146000000000        1.60802000000000        2.92002000000000     
   1.34773000000000        1.60486000000000        2.92002000000000     
   1.35654000000000        1.59092000000000        2.90586000000000     
   1.36281000000000        1.59429000000000        2.90586000000000     
   1.36907000000000        1.60317000000000        2.90954000000000     
   1.36638000000000        1.60989000000000        2.91464000000000     
   1.35963000000000        1.61203000000000        2.91889000000000     
   1.35499000000000        1.61544000000000        2.92314000000000     
   1.35011000000000        1.61301000000000        2.92428000000000     
   1.34509000000000        1.60971000000000        2.92456000000000     
   1.35899000000000        1.58594000000000        2.90133000000000     
   1.36464000000000        1.58891000000000        2.90133000000000     
   1.36839000000000        1.59661000000000        2.90558000000000     
   1.37511000000000        1.60855000000000        2.91067000000000     
   1.37186000000000        1.61384000000000        2.91492000000000     
   1.36386000000000        1.61523000000000        2.91889000000000     
   1.35848000000000        1.61584000000000        2.92172000000000     
   1.35585000000000        1.62218000000000        2.92682000000000     
   1.34868000000000        1.61858000000000        2.92852000000000     
   1.34245000000000        1.61456000000000        2.92937000000000     
   1.36195000000000        1.58097000000000        2.89651000000000     
   1.36717000000000        1.58372000000000        2.89708000000000     
   1.36973000000000        1.59141000000000        2.90161000000000     
   1.37438000000000        1.60013000000000        2.90586000000000     
   1.37209000000000        1.59687000000000        2.90444000000000     
   1.37893000000000        1.60389000000000        2.90671000000000     
   1.38073000000000        1.61263000000000        2.91095000000000     
   1.37739000000000        1.61781000000000        2.91492000000000     
   1.36888000000000        1.61906000000000        2.91889000000000     
   1.36098000000000        1.61951000000000        2.92286000000000     
   1.35253000000000        1.62837000000000        2.93220000000000     
   1.34614000000000        1.62380000000000        2.93334000000000     
   1.33977000000000        1.61924000000000        2.93419000000000     
   1.36491000000000        1.57599000000000        2.89198000000000     
   1.37009000000000        1.57849000000000        2.89254000000000     
   1.37209000000000        1.58615000000000        2.89736000000000     
   1.37398000000000        1.59324000000000        2.90161000000000     
   1.37786000000000        1.59599000000000        2.90246000000000     
   1.38271000000000        1.59916000000000        2.90303000000000     
   1.38435000000000        1.60768000000000        2.90727000000000     
   1.38631000000000        1.61660000000000        2.91124000000000     
   1.38287000000000        1.62170000000000        2.91492000000000     
   1.37412000000000        1.62289000000000        2.91889000000000     
   1.36558000000000        1.62374000000000        2.92314000000000     
   1.36190000000000        1.62814000000000        2.92739000000000     
   1.35845000000000        1.63315000000000        2.93164000000000     
   1.34943000000000        1.63341000000000        2.93702000000000     
   1.34330000000000        1.62868000000000        2.93787000000000     
   1.33710000000000        1.62392000000000        2.93872000000000     
   1.36842000000000        1.57066000000000        2.88773000000000     
   1.37349000000000        1.57323000000000        2.88858000000000     
   1.37511000000000        1.58097000000000        2.89339000000000     
   1.37671000000000        1.58855000000000        2.89793000000000     
   1.38139000000000        1.59114000000000        2.89849000000000     
   1.38644000000000        1.59419000000000        2.89934000000000     
   1.38804000000000        1.60265000000000        2.90359000000000     
   1.38989000000000        1.61151000000000        2.90756000000000     
   1.39184000000000        1.62059000000000        2.91152000000000     
   1.38831000000000        1.62569000000000        2.91492000000000     
   1.37949000000000        1.62679000000000        2.91889000000000     
   1.37085000000000        1.62784000000000        2.92286000000000     
   1.36737000000000        1.63267000000000        2.92711000000000     
   1.36406000000000        1.63764000000000        2.93107000000000     
   1.35524000000000        1.63811000000000        2.93617000000000     
   1.34644000000000        1.63814000000000        2.94127000000000     
   1.34045000000000        1.63324000000000        2.94240000000000     
   1.33430000000000        1.62823000000000        2.94325000000000     
   1.37193000000000        1.56533000000000        2.88319000000000     
   1.37709000000000        1.56804000000000        2.88461000000000     
   1.37853000000000        1.57579000000000        2.88942000000000     
   1.38002000000000        1.58343000000000        2.89424000000000     
   1.38505000000000        1.58611000000000        2.89509000000000     
   1.39038000000000        1.58910000000000        2.89594000000000     
   1.39193000000000        1.59757000000000        2.90019000000000     
   1.39366000000000        1.60638000000000        2.90416000000000     
   1.39550000000000        1.61546000000000        2.90812000000000     
   1.39735000000000        1.62467000000000        2.91181000000000     
   1.39374000000000        1.62977000000000        2.91492000000000     
   1.38486000000000        1.63079000000000        2.91861000000000     
   1.37613000000000        1.63184000000000        2.92257000000000     
   1.37279000000000        1.63683000000000        2.92654000000000     
   1.36944000000000        1.64185000000000        2.93050000000000     
   1.36080000000000        1.64254000000000        2.93532000000000     
   1.35215000000000        1.64293000000000        2.94014000000000     
   1.34363000000000        1.64286000000000        2.94552000000000     
   1.33772000000000        1.63776000000000        2.94665000000000     
   1.33150000000000        1.63254000000000        2.94779000000000     
   1.37576000000000        1.55993000000000        2.87980000000000     
   1.38086000000000        1.56284000000000        2.88121000000000     
   1.38222000000000        1.57058000000000        2.88603000000000     
   1.38366000000000        1.57830000000000        2.89056000000000     
   1.38894000000000        1.58101000000000        2.89169000000000     
   1.39441000000000        1.58391000000000        2.89282000000000     
   1.39593000000000        1.59241000000000        2.89679000000000     
   1.39755000000000        1.60123000000000        2.90104000000000     
   1.39927000000000        1.61035000000000        2.90472000000000     
   1.40105000000000        1.61959000000000        2.90841000000000     
   1.40282000000000        1.62888000000000        2.91181000000000     
   1.39917000000000        1.63393000000000        2.91492000000000     
   1.39022000000000        1.63486000000000        2.91832000000000     
   1.38146000000000        1.63586000000000        2.92229000000000     
   1.37809000000000        1.64093000000000        2.92597000000000     
   1.37477000000000        1.64598000000000        2.92994000000000     
   1.36618000000000        1.64685000000000        2.93447000000000     
   1.35765000000000        1.64748000000000        2.93929000000000     
   1.34926000000000        1.64777000000000        2.94439000000000     
   1.34105000000000        1.64778000000000        2.94977000000000     
   1.33526000000000        1.64237000000000        2.95090000000000     
   1.32914000000000        1.63656000000000        2.95175000000000     
   1.37959000000000        1.55453000000000        2.87611000000000     
   1.38475000000000        1.55763000000000        2.87781000000000     
   1.38598000000000        1.56555000000000        2.88263000000000     
   1.38745000000000        1.57323000000000        2.88716000000000     
   1.39286000000000        1.57587000000000        2.88858000000000     
   1.39843000000000        1.57874000000000        2.88971000000000     
   1.40003000000000        1.58715000000000        2.89368000000000     
   1.40156000000000        1.59603000000000        2.89764000000000     
   1.40319000000000        1.60514000000000        2.90161000000000     
   1.40489000000000        1.61445000000000        2.90529000000000     
   1.40660000000000        1.62380000000000        2.90869000000000     
   1.40830000000000        1.63314000000000        2.91181000000000     
   1.40460000000000        1.63815000000000        2.91492000000000     
   1.39560000000000        1.63900000000000        2.91832000000000     
   1.38678000000000        1.63995000000000        2.92201000000000     
   1.38340000000000        1.64502000000000        2.92569000000000     
   1.38006000000000        1.65011000000000        2.92909000000000     
   1.37149000000000        1.65105000000000        2.93362000000000     
   1.36302000000000        1.65186000000000        2.93844000000000     
   1.35468000000000        1.65244000000000        2.94325000000000     
   1.34654000000000        1.65277000000000        2.94835000000000     
   1.33869000000000        1.65304000000000        2.95373000000000     
   1.33316000000000        1.64765000000000        2.95487000000000     
   1.32679000000000        1.64059000000000        2.95572000000000     
   1.38403000000000        1.54881000000000        2.87356000000000     
   1.38887000000000        1.55232000000000        2.87526000000000     
   1.38977000000000        1.56051000000000        2.87980000000000     
   1.39123000000000        1.56823000000000        2.88433000000000     
   1.39657000000000        1.57090000000000        2.88574000000000     
   1.40225000000000        1.57340000000000        2.88716000000000     
   1.40419000000000        1.58168000000000        2.89113000000000     
   1.40568000000000        1.59071000000000        2.89481000000000     
   1.40722000000000        1.59989000000000        2.89878000000000     
   1.40882000000000        1.60929000000000        2.90218000000000     
   1.41049000000000        1.61869000000000        2.90586000000000     
   1.41214000000000        1.62809000000000        2.90897000000000     
   1.41375000000000        1.63748000000000        2.91181000000000     
   1.40999000000000        1.64245000000000        2.91464000000000     
   1.40098000000000        1.64320000000000        2.91804000000000     
   1.39212000000000        1.64407000000000        2.92172000000000     
   1.38873000000000        1.64915000000000        2.92512000000000     
   1.38538000000000        1.65425000000000        2.92852000000000     
   1.37679000000000        1.65521000000000        2.93277000000000     
   1.36830000000000        1.65613000000000        2.93730000000000     
   1.35996000000000        1.65692000000000        2.94240000000000     
   1.35184000000000        1.65753000000000        2.94722000000000     
   1.34402000000000        1.65804000000000        2.95260000000000     
   1.33665000000000        1.65906000000000        2.95799000000000     
   1.33176000000000        1.65451000000000        2.95940000000000     
   1.32752000000000        1.65060000000000        2.96053000000000     
   1.38847000000000        1.54309000000000        2.87130000000000     
   1.39322000000000        1.54696000000000        2.87328000000000     
   1.39363000000000        1.55554000000000        2.87753000000000     
   1.39479000000000        1.56336000000000        2.88178000000000     
   1.39998000000000        1.56609000000000        2.88348000000000     
   1.40523000000000        1.56817000000000        2.88490000000000     
   1.40831000000000        1.57595000000000        2.88801000000000     
   1.40991000000000        1.58527000000000        2.89226000000000     
   1.41134000000000        1.59455000000000        2.89594000000000     
   1.41287000000000        1.60403000000000        2.89963000000000     
   1.41448000000000        1.61354000000000        2.90303000000000     
   1.41607000000000        1.62306000000000        2.90614000000000     
   1.41763000000000        1.63250000000000        2.90897000000000     
   1.41914000000000        1.64187000000000        2.91181000000000     
   1.41537000000000        1.64679000000000        2.91436000000000     
   1.40638000000000        1.64743000000000        2.91776000000000     
   1.39750000000000        1.64822000000000        2.92115000000000     
   1.39408000000000        1.65329000000000        2.92428000000000     
   1.39075000000000        1.65836000000000        2.92767000000000     
   1.38211000000000        1.65936000000000        2.93192000000000     
   1.37359000000000        1.66034000000000        2.93645000000000     
   1.36522000000000        1.66125000000000        2.94127000000000     
   1.35706000000000        1.66204000000000        2.94608000000000     
   1.34917000000000        1.66272000000000        2.95118000000000     
   1.34161000000000        1.66357000000000        2.95657000000000     
   1.33444000000000        1.66500000000000        2.96224000000000     
   1.32985000000000        1.66100000000000        2.96393000000000     
   1.32437000000000        1.64365000000000        2.95940000000000     
   1.32547000000000        1.64970000000000        2.96167000000000     
   1.32556000000000        1.65702000000000        2.96507000000000     
   1.39333000000000        1.53748000000000        2.87016000000000     
   1.39791000000000        1.54156000000000        2.87158000000000     
   1.39776000000000        1.55053000000000        2.87555000000000     
   1.39836000000000        1.55876000000000        2.87980000000000     
   1.40272000000000        1.56179000000000        2.88150000000000     
   1.40613000000000        1.56423000000000        2.88291000000000     
   1.41228000000000        1.56864000000000        2.88518000000000     
   1.41421000000000        1.57950000000000        2.88971000000000     
   1.41556000000000        1.58909000000000        2.89339000000000     
   1.41700000000000        1.59871000000000        2.89679000000000     
   1.41855000000000        1.60836000000000        2.90019000000000     
   1.42013000000000        1.61794000000000        2.90359000000000     
   1.42162000000000        1.62751000000000        2.90643000000000     
   1.42304000000000        1.63697000000000        2.90897000000000     
   1.42442000000000        1.64631000000000        2.91181000000000     
   1.42065000000000        1.65119000000000        2.91436000000000     
   1.41177000000000        1.65168000000000        2.91747000000000     
   1.40287000000000        1.65242000000000        2.92059000000000     
   1.39949000000000        1.65742000000000        2.92371000000000     
   1.39615000000000        1.66247000000000        2.92682000000000     
   1.38748000000000        1.66346000000000        2.93107000000000     
   1.37892000000000        1.66448000000000        2.93532000000000     
   1.37050000000000        1.66548000000000        2.94014000000000     
   1.36225000000000        1.66641000000000        2.94495000000000     
   1.35426000000000        1.66725000000000        2.95005000000000     
   1.34657000000000        1.66811000000000        2.95515000000000     
   1.33920000000000        1.66925000000000        2.96053000000000     
   1.33210000000000        1.67079000000000        2.96648000000000     
   1.32763000000000        1.66694000000000        2.96818000000000     
   1.32508000000000        1.65324000000000        2.96365000000000     
   1.32415000000000        1.65059000000000        2.96309000000000     
   1.32196000000000        1.64672000000000        2.96280000000000     
   1.32337000000000        1.66349000000000        2.96988000000000     
   1.39819000000000        1.53188000000000        2.86903000000000     
   1.40285000000000        1.53596000000000        2.87073000000000     
   1.40229000000000        1.54533000000000        2.87413000000000     
   1.40223000000000        1.55415000000000        2.87781000000000     
   1.40645000000000        1.55804000000000        2.88036000000000     
   1.41000000000000        1.56231000000000        2.88234000000000     
   1.41875000000000        1.57342000000000        2.88744000000000     
   1.41990000000000        1.58353000000000        2.89113000000000     
   1.42120000000000        1.59322000000000        2.89453000000000     
   1.42270000000000        1.60302000000000        2.89793000000000     
   1.42425000000000        1.61283000000000        2.90076000000000     
   1.42573000000000        1.62251000000000        2.90387000000000     
   1.42710000000000        1.63206000000000        2.90643000000000     
   1.42834000000000        1.64150000000000        2.90897000000000     
   1.42951000000000        1.65083000000000        2.91152000000000     
   1.42578000000000        1.65566000000000        2.91407000000000     
   1.41707000000000        1.65604000000000        2.91691000000000     
   1.40828000000000        1.65663000000000        2.92031000000000     
   1.40490000000000        1.66158000000000        2.92314000000000     
   1.40159000000000        1.66658000000000        2.92597000000000     
   1.39288000000000        1.66755000000000        2.92994000000000     
   1.38426000000000        1.66860000000000        2.93447000000000     
   1.37578000000000        1.66967000000000        2.93900000000000     
   1.36747000000000        1.67070000000000        2.94354000000000     
   1.35936000000000        1.67165000000000        2.94864000000000     
   1.35153000000000        1.67257000000000        2.95373000000000     
   1.34400000000000        1.67360000000000        2.95912000000000     
   1.33675000000000        1.67488000000000        2.96478000000000     
   1.32973000000000        1.67633000000000        2.97045000000000     
   1.32529000000000        1.67245000000000        2.97215000000000     
   1.32154000000000        1.65623000000000        2.96790000000000     
   1.32292000000000        1.65278000000000        2.96507000000000     
   1.32498000000000        1.65230000000000        2.96337000000000     
   1.32001000000000        1.65022000000000        2.96620000000000     
   1.31937000000000        1.66069000000000        2.97186000000000     
   1.32104000000000        1.66873000000000        2.97385000000000     
   1.40365000000000        1.52611000000000        2.86960000000000     
   1.40819000000000        1.53026000000000        2.87045000000000     
   1.40716000000000        1.53988000000000        2.87299000000000     
   1.40659000000000        1.54922000000000        2.87640000000000     
   1.41082000000000        1.55329000000000        2.87895000000000     
   1.41484000000000        1.55792000000000        2.88121000000000     
   1.41887000000000        1.56291000000000        2.88348000000000     
   1.42387000000000        1.56756000000000        2.88546000000000     
   1.42435000000000        1.57769000000000        2.88915000000000     
   1.42546000000000        1.58765000000000        2.89254000000000     
   1.42687000000000        1.59763000000000        2.89566000000000     
   1.42843000000000        1.60760000000000        2.89849000000000     
   1.42993000000000        1.61748000000000        2.90133000000000     
   1.43129000000000        1.62714000000000        2.90416000000000     
   1.43246000000000        1.63666000000000        2.90671000000000     
   1.43347000000000        1.64604000000000        2.90897000000000     
   1.43438000000000        1.65540000000000        2.91152000000000     
   1.43050000000000        1.66040000000000        2.91407000000000     
   1.42211000000000        1.66063000000000        2.91662000000000     
   1.41359000000000        1.66096000000000        2.91974000000000     
   1.41022000000000        1.66568000000000        2.92257000000000     
   1.40711000000000        1.67059000000000        2.92512000000000     
   1.39835000000000        1.67159000000000        2.92909000000000     
   1.38968000000000        1.67266000000000        2.93334000000000     
   1.38114000000000        1.67378000000000        2.93759000000000     
   1.37275000000000        1.67490000000000        2.94240000000000     
   1.36454000000000        1.67595000000000        2.94722000000000     
   1.35656000000000        1.67694000000000        2.95232000000000     
   1.34886000000000        1.67795000000000        2.95770000000000     
   1.34145000000000        1.67909000000000        2.96309000000000     
   1.33429000000000        1.68039000000000        2.96875000000000     
   1.32739000000000        1.68173000000000        2.97442000000000     
   1.32299000000000        1.67770000000000        2.97612000000000     
   1.31806000000000        1.65371000000000        2.96932000000000     
   1.31695000000000        1.66529000000000        2.97583000000000     
   1.31553000000000        1.65769000000000        2.97328000000000     
   1.31869000000000        1.67379000000000        2.97810000000000     
   1.40911000000000        1.52034000000000        2.86988000000000     
   1.41382000000000        1.52440000000000        2.87073000000000     
   1.41241000000000        1.53427000000000        2.87243000000000     
   1.41139000000000        1.54388000000000        2.87555000000000     
   1.41562000000000        1.54809000000000        2.87781000000000     
   1.41989000000000        1.55253000000000        2.88008000000000     
   1.42421000000000        1.55717000000000        2.88234000000000     
   1.42899000000000        1.56170000000000        2.88433000000000     
   1.42909000000000        1.57192000000000        2.88744000000000     
   1.42980000000000        1.58200000000000        2.89056000000000     
   1.43105000000000        1.59211000000000        2.89339000000000     
   1.43262000000000        1.60228000000000        2.89651000000000     
   1.43423000000000        1.61235000000000        2.89934000000000     
   1.43558000000000        1.62226000000000        2.90189000000000     
   1.43672000000000        1.63186000000000        2.90444000000000     
   1.43763000000000        1.64132000000000        2.90671000000000     
   1.43836000000000        1.65065000000000        2.90897000000000     
   1.43886000000000        1.66008000000000        2.91152000000000     
   1.43488000000000        1.66517000000000        2.91407000000000     
   1.42665000000000        1.66543000000000        2.91662000000000     
   1.41851000000000        1.66528000000000        2.91946000000000     
   1.41524000000000        1.66958000000000        2.92172000000000     
   1.41250000000000        1.67427000000000        2.92428000000000     
   1.40386000000000        1.67561000000000        2.92823000000000     
   1.39514000000000        1.67668000000000        2.93220000000000     
   1.38655000000000        1.67785000000000        2.93645000000000     
   1.37809000000000        1.67903000000000        2.94099000000000     
   1.36981000000000        1.68018000000000        2.94581000000000     
   1.36170000000000        1.68125000000000        2.95090000000000     
   1.35383000000000        1.68230000000000        2.95600000000000     
   1.34624000000000        1.68339000000000        2.96138000000000     
   1.33892000000000        1.68460000000000        2.96677000000000     
   1.33188000000000        1.68588000000000        2.97243000000000     
   1.32507000000000        1.68711000000000        2.97810000000000     
   1.32070000000000        1.68292000000000        2.98008000000000     
   1.31454000000000        1.66990000000000        2.97980000000000     
   1.31299000000000        1.66166000000000        2.97725000000000     
   1.31639000000000        1.67876000000000        2.98178000000000     
   1.41551000000000        1.51410000000000        2.87158000000000     
   1.41993000000000        1.51848000000000        2.87186000000000     
   1.41799000000000        1.52849000000000        2.87271000000000     
   1.41657000000000        1.53832000000000        2.87470000000000     
   1.42074000000000        1.54249000000000        2.87725000000000     
   1.42502000000000        1.54689000000000        2.87923000000000     
   1.42944000000000        1.55139000000000        2.88150000000000     
   1.43402000000000        1.55591000000000        2.88348000000000     
   1.43388000000000        1.56615000000000        2.88603000000000     
   1.43427000000000        1.57629000000000        2.88886000000000     
   1.43525000000000        1.58645000000000        2.89169000000000     
   1.43676000000000        1.59680000000000        2.89453000000000     
   1.43847000000000        1.60719000000000        2.89736000000000     
   1.43997000000000        1.61731000000000        2.89991000000000     
   1.44111000000000        1.62710000000000        2.90218000000000     
   1.44197000000000        1.63661000000000        2.90444000000000     
   1.44260000000000        1.64598000000000        2.90671000000000     
   1.44302000000000        1.65530000000000        2.90897000000000     
   1.44309000000000        1.66465000000000        2.91152000000000     
   1.43885000000000        1.66960000000000        2.91407000000000     
   1.43043000000000        1.67077000000000        2.91691000000000     
   1.42247000000000        1.67023000000000        2.91946000000000     
   1.41876000000000        1.67235000000000        2.92144000000000     
   1.41808000000000        1.67685000000000        2.92286000000000     
   1.40952000000000        1.67938000000000        2.92711000000000     
   1.40065000000000        1.68066000000000        2.93107000000000     
   1.39200000000000        1.68185000000000        2.93532000000000     
   1.38351000000000        1.68310000000000        2.93985000000000     
   1.37517000000000        1.68433000000000        2.94439000000000     
   1.36697000000000        1.68550000000000        2.94920000000000     
   1.35895000000000        1.68659000000000        2.95430000000000     
   1.35118000000000        1.68768000000000        2.95969000000000     
   1.34369000000000        1.68885000000000        2.96507000000000     
   1.33648000000000        1.69009000000000        2.97073000000000     
   1.32953000000000        1.69134000000000        2.97612000000000     
   1.32279000000000        1.69246000000000        2.98178000000000     
   1.31840000000000        1.68813000000000        2.98377000000000     
   1.31210000000000        1.67461000000000        2.98377000000000     
   1.31042000000000        1.66602000000000        2.98150000000000     
   1.31404000000000        1.68378000000000        2.98575000000000     
   1.42190000000000        1.50786000000000        2.87328000000000     
   1.42615000000000        1.51287000000000        2.87356000000000     
   1.42381000000000        1.52275000000000        2.87356000000000     
   1.42200000000000        1.53258000000000        2.87470000000000     
   1.42611000000000        1.53672000000000        2.87696000000000     
   1.43030000000000        1.54110000000000        2.87895000000000     
   1.43465000000000        1.54565000000000        2.88093000000000     
   1.43915000000000        1.55024000000000        2.88291000000000     
   1.43878000000000        1.56046000000000        2.88518000000000     
   1.43887000000000        1.57059000000000        2.88773000000000     
   1.43954000000000        1.58077000000000        2.89027000000000     
   1.44092000000000        1.59117000000000        2.89282000000000     
   1.44276000000000        1.60185000000000        2.89538000000000     
   1.44442000000000        1.61233000000000        2.89793000000000     
   1.44564000000000        1.62229000000000        2.90019000000000     
   1.44646000000000        1.63195000000000        2.90246000000000     
   1.44705000000000        1.64138000000000        2.90472000000000     
   1.44737000000000        1.65070000000000        2.90699000000000     
   1.44741000000000        1.65996000000000        2.90926000000000     
   1.44697000000000        1.66909000000000        2.91152000000000     
   1.44242000000000        1.67374000000000        2.91407000000000     
   1.43472000000000        1.67508000000000        2.91662000000000     
   1.42489000000000        1.67710000000000        2.92059000000000     
   1.41527000000000        1.68279000000000        2.92569000000000     
   1.40623000000000        1.68459000000000        2.92994000000000     
   1.39752000000000        1.68579000000000        2.93390000000000     
   1.38899000000000        1.68710000000000        2.93844000000000     
   1.38061000000000        1.68842000000000        2.94297000000000     
   1.37234000000000        1.68968000000000        2.94779000000000     